V -t * -v 1.0a5 -a 0
A -t * -n 1 -p 0 -o 0x7fffffff -c 30 -a 1
A -t * -h 1 -m 1073741823 -s 0
n -t * -a 0 -s 0 -S UP -v circle -c black -i black
n -t * -a 1 -s 1 -S UP -v circle -c black -i black
n -t * -a 2 -s 2 -S UP -v circle -c black -i black
n -t * -a 3 -s 3 -S UP -v circle -c black -i black
l -t * -s 0 -d 2 -S UP -r 5000000 -D 0.01 -c black
l -t * -s 1 -d 2 -S UP -r 5000000 -D 0.01 -c black
l -t * -s 2 -d 3 -S UP -r 900000 -D 0.01 -c black
+ -t 0.5 -s 0 -d 2 -p tcp -e 40 -c 0 -i 0 -a 0 -x {0.0 3.0 0 ------- null}
- -t 0.5 -s 0 -d 2 -p tcp -e 40 -c 0 -i 0 -a 0 -x {0.0 3.0 0 ------- null}
h -t 0.5 -s 0 -d 2 -p tcp -e 40 -c 0 -i 0 -a 0 -x {0.0 3.0 -1 ------- null}
r -t 0.510064 -s 0 -d 2 -p tcp -e 40 -c 0 -i 0 -a 0 -x {0.0 3.0 0 ------- null}
+ -t 0.510064 -s 2 -d 3 -p tcp -e 40 -c 0 -i 0 -a 0 -x {0.0 3.0 0 ------- null}
- -t 0.510064 -s 2 -d 3 -p tcp -e 40 -c 0 -i 0 -a 0 -x {0.0 3.0 0 ------- null}
h -t 0.510064 -s 2 -d 3 -p tcp -e 40 -c 0 -i 0 -a 0 -x {0.0 3.0 -1 ------- null}
r -t 0.520419555555556 -s 2 -d 3 -p tcp -e 40 -c 0 -i 0 -a 0 -x {0.0 3.0 0 ------- null}
+ -t 0.520419555555556 -s 3 -d 2 -p ack -e 40 -c 0 -i 1 -a 0 -x {3.0 0.0 0 ------- null}
- -t 0.520419555555556 -s 3 -d 2 -p ack -e 40 -c 0 -i 1 -a 0 -x {3.0 0.0 0 ------- null}
h -t 0.520419555555556 -s 3 -d 2 -p ack -e 40 -c 0 -i 1 -a 0 -x {3.0 0.0 -1 ------- null}
r -t 0.530775111111111 -s 3 -d 2 -p ack -e 40 -c 0 -i 1 -a 0 -x {3.0 0.0 0 ------- null}
+ -t 0.530775111111111 -s 2 -d 0 -p ack -e 40 -c 0 -i 1 -a 0 -x {3.0 0.0 0 ------- null}
- -t 0.530775111111111 -s 2 -d 0 -p ack -e 40 -c 0 -i 1 -a 0 -x {3.0 0.0 0 ------- null}
h -t 0.530775111111111 -s 2 -d 0 -p ack -e 40 -c 0 -i 1 -a 0 -x {3.0 0.0 -1 ------- null}
r -t 0.540839111111111 -s 2 -d 0 -p ack -e 40 -c 0 -i 1 -a 0 -x {3.0 0.0 0 ------- null}
+ -t 0.540839111111111 -s 0 -d 2 -p tcp -e 1040 -c 0 -i 2 -a 0 -x {0.0 3.0 1 ------- null}
- -t 0.540839111111111 -s 0 -d 2 -p tcp -e 1040 -c 0 -i 2 -a 0 -x {0.0 3.0 1 ------- null}
h -t 0.540839111111111 -s 0 -d 2 -p tcp -e 1040 -c 0 -i 2 -a 0 -x {0.0 3.0 -1 ------- null}
+ -t 0.540839111111111 -s 0 -d 2 -p tcp -e 1040 -c 0 -i 3 -a 0 -x {0.0 3.0 2 ------- null}
- -t 0.542503111111111 -s 0 -d 2 -p tcp -e 1040 -c 0 -i 3 -a 0 -x {0.0 3.0 2 ------- null}
h -t 0.542503111111111 -s 0 -d 2 -p tcp -e 1040 -c 0 -i 3 -a 0 -x {0.0 3.0 -1 ------- null}
r -t 0.552503111111111 -s 0 -d 2 -p tcp -e 1040 -c 0 -i 2 -a 0 -x {0.0 3.0 1 ------- null}
+ -t 0.552503111111111 -s 2 -d 3 -p tcp -e 1040 -c 0 -i 2 -a 0 -x {0.0 3.0 1 ------- null}
- -t 0.552503111111111 -s 2 -d 3 -p tcp -e 1040 -c 0 -i 2 -a 0 -x {0.0 3.0 1 ------- null}
h -t 0.552503111111111 -s 2 -d 3 -p tcp -e 1040 -c 0 -i 2 -a 0 -x {0.0 3.0 -1 ------- null}
r -t 0.554167111111111 -s 0 -d 2 -p tcp -e 1040 -c 0 -i 3 -a 0 -x {0.0 3.0 2 ------- null}
+ -t 0.554167111111111 -s 2 -d 3 -p tcp -e 1040 -c 0 -i 3 -a 0 -x {0.0 3.0 2 ------- null}
- -t 0.561747555555556 -s 2 -d 3 -p tcp -e 1040 -c 0 -i 3 -a 0 -x {0.0 3.0 2 ------- null}
h -t 0.561747555555556 -s 2 -d 3 -p tcp -e 1040 -c 0 -i 3 -a 0 -x {0.0 3.0 -1 ------- null}
r -t 0.571747555555555 -s 2 -d 3 -p tcp -e 1040 -c 0 -i 2 -a 0 -x {0.0 3.0 1 ------- null}
+ -t 0.571747555555555 -s 3 -d 2 -p ack -e 40 -c 0 -i 4 -a 0 -x {3.0 0.0 1 ------- null}
- -t 0.571747555555555 -s 3 -d 2 -p ack -e 40 -c 0 -i 4 -a 0 -x {3.0 0.0 1 ------- null}
h -t 0.571747555555555 -s 3 -d 2 -p ack -e 40 -c 0 -i 4 -a 0 -x {3.0 0.0 -1 ------- null}
r -t 0.580992 -s 2 -d 3 -p tcp -e 1040 -c 0 -i 3 -a 0 -x {0.0 3.0 2 ------- null}
+ -t 0.580992 -s 3 -d 2 -p ack -e 40 -c 0 -i 5 -a 0 -x {3.0 0.0 2 ------- null}
- -t 0.580992 -s 3 -d 2 -p ack -e 40 -c 0 -i 5 -a 0 -x {3.0 0.0 2 ------- null}
h -t 0.580992 -s 3 -d 2 -p ack -e 40 -c 0 -i 5 -a 0 -x {3.0 0.0 -1 ------- null}
r -t 0.582103111111111 -s 3 -d 2 -p ack -e 40 -c 0 -i 4 -a 0 -x {3.0 0.0 1 ------- null}
+ -t 0.582103111111111 -s 2 -d 0 -p ack -e 40 -c 0 -i 4 -a 0 -x {3.0 0.0 1 ------- null}
- -t 0.582103111111111 -s 2 -d 0 -p ack -e 40 -c 0 -i 4 -a 0 -x {3.0 0.0 1 ------- null}
h -t 0.582103111111111 -s 2 -d 0 -p ack -e 40 -c 0 -i 4 -a 0 -x {3.0 0.0 -1 ------- null}
r -t 0.591347555555556 -s 3 -d 2 -p ack -e 40 -c 0 -i 5 -a 0 -x {3.0 0.0 2 ------- null}
+ -t 0.591347555555556 -s 2 -d 0 -p ack -e 40 -c 0 -i 5 -a 0 -x {3.0 0.0 2 ------- null}
- -t 0.591347555555556 -s 2 -d 0 -p ack -e 40 -c 0 -i 5 -a 0 -x {3.0 0.0 2 ------- null}
h -t 0.591347555555556 -s 2 -d 0 -p ack -e 40 -c 0 -i 5 -a 0 -x {3.0 0.0 -1 ------- null}
r -t 0.592167111111111 -s 2 -d 0 -p ack -e 40 -c 0 -i 4 -a 0 -x {3.0 0.0 1 ------- null}
+ -t 0.592167111111111 -s 0 -d 2 -p tcp -e 1040 -c 0 -i 6 -a 0 -x {0.0 3.0 3 ------- null}
- -t 0.592167111111111 -s 0 -d 2 -p tcp -e 1040 -c 0 -i 6 -a 0 -x {0.0 3.0 3 ------- null}
h -t 0.592167111111111 -s 0 -d 2 -p tcp -e 1040 -c 0 -i 6 -a 0 -x {0.0 3.0 -1 ------- null}
+ -t 0.592167111111111 -s 0 -d 2 -p tcp -e 1040 -c 0 -i 7 -a 0 -x {0.0 3.0 4 ------- null}
- -t 0.593831111111111 -s 0 -d 2 -p tcp -e 1040 -c 0 -i 7 -a 0 -x {0.0 3.0 4 ------- null}
h -t 0.593831111111111 -s 0 -d 2 -p tcp -e 1040 -c 0 -i 7 -a 0 -x {0.0 3.0 -1 ------- null}
r -t 0.601411555555555 -s 2 -d 0 -p ack -e 40 -c 0 -i 5 -a 0 -x {3.0 0.0 2 ------- null}
+ -t 0.601411555555555 -s 0 -d 2 -p tcp -e 1040 -c 0 -i 8 -a 0 -x {0.0 3.0 5 ------- null}
- -t 0.601411555555555 -s 0 -d 2 -p tcp -e 1040 -c 0 -i 8 -a 0 -x {0.0 3.0 5 ------- null}
h -t 0.601411555555555 -s 0 -d 2 -p tcp -e 1040 -c 0 -i 8 -a 0 -x {0.0 3.0 -1 ------- null}
+ -t 0.601411555555555 -s 0 -d 2 -p tcp -e 1040 -c 0 -i 9 -a 0 -x {0.0 3.0 6 ------- null}
- -t 0.603075555555555 -s 0 -d 2 -p tcp -e 1040 -c 0 -i 9 -a 0 -x {0.0 3.0 6 ------- null}
h -t 0.603075555555555 -s 0 -d 2 -p tcp -e 1040 -c 0 -i 9 -a 0 -x {0.0 3.0 -1 ------- null}
r -t 0.603831111111111 -s 0 -d 2 -p tcp -e 1040 -c 0 -i 6 -a 0 -x {0.0 3.0 3 ------- null}
+ -t 0.603831111111111 -s 2 -d 3 -p tcp -e 1040 -c 0 -i 6 -a 0 -x {0.0 3.0 3 ------- null}
- -t 0.603831111111111 -s 2 -d 3 -p tcp -e 1040 -c 0 -i 6 -a 0 -x {0.0 3.0 3 ------- null}
h -t 0.603831111111111 -s 2 -d 3 -p tcp -e 1040 -c 0 -i 6 -a 0 -x {0.0 3.0 -1 ------- null}
r -t 0.605495111111111 -s 0 -d 2 -p tcp -e 1040 -c 0 -i 7 -a 0 -x {0.0 3.0 4 ------- null}
+ -t 0.605495111111111 -s 2 -d 3 -p tcp -e 1040 -c 0 -i 7 -a 0 -x {0.0 3.0 4 ------- null}
- -t 0.613075555555555 -s 2 -d 3 -p tcp -e 1040 -c 0 -i 7 -a 0 -x {0.0 3.0 4 ------- null}
h -t 0.613075555555555 -s 2 -d 3 -p tcp -e 1040 -c 0 -i 7 -a 0 -x {0.0 3.0 -1 ------- null}
r -t 0.613075555555555 -s 0 -d 2 -p tcp -e 1040 -c 0 -i 8 -a 0 -x {0.0 3.0 5 ------- null}
+ -t 0.613075555555555 -s 2 -d 3 -p tcp -e 1040 -c 0 -i 8 -a 0 -x {0.0 3.0 5 ------- null}
r -t 0.614739555555555 -s 0 -d 2 -p tcp -e 1040 -c 0 -i 9 -a 0 -x {0.0 3.0 6 ------- null}
+ -t 0.614739555555555 -s 2 -d 3 -p tcp -e 1040 -c 0 -i 9 -a 0 -x {0.0 3.0 6 ------- null}
- -t 0.62232 -s 2 -d 3 -p tcp -e 1040 -c 0 -i 8 -a 0 -x {0.0 3.0 5 ------- null}
h -t 0.62232 -s 2 -d 3 -p tcp -e 1040 -c 0 -i 8 -a 0 -x {0.0 3.0 -1 ------- null}
r -t 0.623075555555555 -s 2 -d 3 -p tcp -e 1040 -c 0 -i 6 -a 0 -x {0.0 3.0 3 ------- null}
+ -t 0.623075555555555 -s 3 -d 2 -p ack -e 40 -c 0 -i 10 -a 0 -x {3.0 0.0 3 ------- null}
- -t 0.623075555555555 -s 3 -d 2 -p ack -e 40 -c 0 -i 10 -a 0 -x {3.0 0.0 3 ------- null}
h -t 0.623075555555555 -s 3 -d 2 -p ack -e 40 -c 0 -i 10 -a 0 -x {3.0 0.0 -1 ------- null}
- -t 0.631564444444444 -s 2 -d 3 -p tcp -e 1040 -c 0 -i 9 -a 0 -x {0.0 3.0 6 ------- null}
h -t 0.631564444444444 -s 2 -d 3 -p tcp -e 1040 -c 0 -i 9 -a 0 -x {0.0 3.0 -1 ------- null}
r -t 0.63232 -s 2 -d 3 -p tcp -e 1040 -c 0 -i 7 -a 0 -x {0.0 3.0 4 ------- null}
+ -t 0.63232 -s 3 -d 2 -p ack -e 40 -c 0 -i 11 -a 0 -x {3.0 0.0 4 ------- null}
- -t 0.63232 -s 3 -d 2 -p ack -e 40 -c 0 -i 11 -a 0 -x {3.0 0.0 4 ------- null}
h -t 0.63232 -s 3 -d 2 -p ack -e 40 -c 0 -i 11 -a 0 -x {3.0 0.0 -1 ------- null}
r -t 0.633431111111111 -s 3 -d 2 -p ack -e 40 -c 0 -i 10 -a 0 -x {3.0 0.0 3 ------- null}
+ -t 0.633431111111111 -s 2 -d 0 -p ack -e 40 -c 0 -i 10 -a 0 -x {3.0 0.0 3 ------- null}
- -t 0.633431111111111 -s 2 -d 0 -p ack -e 40 -c 0 -i 10 -a 0 -x {3.0 0.0 3 ------- null}
h -t 0.633431111111111 -s 2 -d 0 -p ack -e 40 -c 0 -i 10 -a 0 -x {3.0 0.0 -1 ------- null}
r -t 0.641564444444444 -s 2 -d 3 -p tcp -e 1040 -c 0 -i 8 -a 0 -x {0.0 3.0 5 ------- null}
+ -t 0.641564444444444 -s 3 -d 2 -p ack -e 40 -c 0 -i 12 -a 0 -x {3.0 0.0 5 ------- null}
- -t 0.641564444444444 -s 3 -d 2 -p ack -e 40 -c 0 -i 12 -a 0 -x {3.0 0.0 5 ------- null}
h -t 0.641564444444444 -s 3 -d 2 -p ack -e 40 -c 0 -i 12 -a 0 -x {3.0 0.0 -1 ------- null}
r -t 0.642675555555555 -s 3 -d 2 -p ack -e 40 -c 0 -i 11 -a 0 -x {3.0 0.0 4 ------- null}
+ -t 0.642675555555555 -s 2 -d 0 -p ack -e 40 -c 0 -i 11 -a 0 -x {3.0 0.0 4 ------- null}
- -t 0.642675555555555 -s 2 -d 0 -p ack -e 40 -c 0 -i 11 -a 0 -x {3.0 0.0 4 ------- null}
h -t 0.642675555555555 -s 2 -d 0 -p ack -e 40 -c 0 -i 11 -a 0 -x {3.0 0.0 -1 ------- null}
r -t 0.643495111111111 -s 2 -d 0 -p ack -e 40 -c 0 -i 10 -a 0 -x {3.0 0.0 3 ------- null}
+ -t 0.643495111111111 -s 0 -d 2 -p tcp -e 1040 -c 0 -i 13 -a 0 -x {0.0 3.0 7 ------- null}
- -t 0.643495111111111 -s 0 -d 2 -p tcp -e 1040 -c 0 -i 13 -a 0 -x {0.0 3.0 7 ------- null}
h -t 0.643495111111111 -s 0 -d 2 -p tcp -e 1040 -c 0 -i 13 -a 0 -x {0.0 3.0 -1 ------- null}
+ -t 0.643495111111111 -s 0 -d 2 -p tcp -e 1040 -c 0 -i 14 -a 0 -x {0.0 3.0 8 ------- null}
- -t 0.645159111111111 -s 0 -d 2 -p tcp -e 1040 -c 0 -i 14 -a 0 -x {0.0 3.0 8 ------- null}
h -t 0.645159111111111 -s 0 -d 2 -p tcp -e 1040 -c 0 -i 14 -a 0 -x {0.0 3.0 -1 ------- null}
r -t 0.650808888888889 -s 2 -d 3 -p tcp -e 1040 -c 0 -i 9 -a 0 -x {0.0 3.0 6 ------- null}
+ -t 0.650808888888889 -s 3 -d 2 -p ack -e 40 -c 0 -i 15 -a 0 -x {3.0 0.0 6 ------- null}
- -t 0.650808888888889 -s 3 -d 2 -p ack -e 40 -c 0 -i 15 -a 0 -x {3.0 0.0 6 ------- null}
h -t 0.650808888888889 -s 3 -d 2 -p ack -e 40 -c 0 -i 15 -a 0 -x {3.0 0.0 -1 ------- null}
r -t 0.65192 -s 3 -d 2 -p ack -e 40 -c 0 -i 12 -a 0 -x {3.0 0.0 5 ------- null}
+ -t 0.65192 -s 2 -d 0 -p ack -e 40 -c 0 -i 12 -a 0 -x {3.0 0.0 5 ------- null}
- -t 0.65192 -s 2 -d 0 -p ack -e 40 -c 0 -i 12 -a 0 -x {3.0 0.0 5 ------- null}
h -t 0.65192 -s 2 -d 0 -p ack -e 40 -c 0 -i 12 -a 0 -x {3.0 0.0 -1 ------- null}
r -t 0.652739555555555 -s 2 -d 0 -p ack -e 40 -c 0 -i 11 -a 0 -x {3.0 0.0 4 ------- null}
+ -t 0.652739555555555 -s 0 -d 2 -p tcp -e 1040 -c 0 -i 16 -a 0 -x {0.0 3.0 9 ------- null}
- -t 0.652739555555555 -s 0 -d 2 -p tcp -e 1040 -c 0 -i 16 -a 0 -x {0.0 3.0 9 ------- null}
h -t 0.652739555555555 -s 0 -d 2 -p tcp -e 1040 -c 0 -i 16 -a 0 -x {0.0 3.0 -1 ------- null}
+ -t 0.652739555555555 -s 0 -d 2 -p tcp -e 1040 -c 0 -i 17 -a 0 -x {0.0 3.0 10 ------- null}
- -t 0.654403555555555 -s 0 -d 2 -p tcp -e 1040 -c 0 -i 17 -a 0 -x {0.0 3.0 10 ------- null}
h -t 0.654403555555555 -s 0 -d 2 -p tcp -e 1040 -c 0 -i 17 -a 0 -x {0.0 3.0 -1 ------- null}
r -t 0.655159111111111 -s 0 -d 2 -p tcp -e 1040 -c 0 -i 13 -a 0 -x {0.0 3.0 7 ------- null}
+ -t 0.655159111111111 -s 2 -d 3 -p tcp -e 1040 -c 0 -i 13 -a 0 -x {0.0 3.0 7 ------- null}
- -t 0.655159111111111 -s 2 -d 3 -p tcp -e 1040 -c 0 -i 13 -a 0 -x {0.0 3.0 7 ------- null}
h -t 0.655159111111111 -s 2 -d 3 -p tcp -e 1040 -c 0 -i 13 -a 0 -x {0.0 3.0 -1 ------- null}
r -t 0.656823111111111 -s 0 -d 2 -p tcp -e 1040 -c 0 -i 14 -a 0 -x {0.0 3.0 8 ------- null}
+ -t 0.656823111111111 -s 2 -d 3 -p tcp -e 1040 -c 0 -i 14 -a 0 -x {0.0 3.0 8 ------- null}
r -t 0.661164444444444 -s 3 -d 2 -p ack -e 40 -c 0 -i 15 -a 0 -x {3.0 0.0 6 ------- null}
+ -t 0.661164444444444 -s 2 -d 0 -p ack -e 40 -c 0 -i 15 -a 0 -x {3.0 0.0 6 ------- null}
- -t 0.661164444444444 -s 2 -d 0 -p ack -e 40 -c 0 -i 15 -a 0 -x {3.0 0.0 6 ------- null}
h -t 0.661164444444444 -s 2 -d 0 -p ack -e 40 -c 0 -i 15 -a 0 -x {3.0 0.0 -1 ------- null}
r -t 0.661984 -s 2 -d 0 -p ack -e 40 -c 0 -i 12 -a 0 -x {3.0 0.0 5 ------- null}
+ -t 0.661984 -s 0 -d 2 -p tcp -e 1040 -c 0 -i 18 -a 0 -x {0.0 3.0 11 ------- null}
- -t 0.661984 -s 0 -d 2 -p tcp -e 1040 -c 0 -i 18 -a 0 -x {0.0 3.0 11 ------- null}
h -t 0.661984 -s 0 -d 2 -p tcp -e 1040 -c 0 -i 18 -a 0 -x {0.0 3.0 -1 ------- null}
+ -t 0.661984 -s 0 -d 2 -p tcp -e 1040 -c 0 -i 19 -a 0 -x {0.0 3.0 12 ------- null}
- -t 0.663648 -s 0 -d 2 -p tcp -e 1040 -c 0 -i 19 -a 0 -x {0.0 3.0 12 ------- null}
h -t 0.663648 -s 0 -d 2 -p tcp -e 1040 -c 0 -i 19 -a 0 -x {0.0 3.0 -1 ------- null}
r -t 0.664403555555555 -s 0 -d 2 -p tcp -e 1040 -c 0 -i 16 -a 0 -x {0.0 3.0 9 ------- null}
+ -t 0.664403555555555 -s 2 -d 3 -p tcp -e 1040 -c 0 -i 16 -a 0 -x {0.0 3.0 9 ------- null}
- -t 0.664403555555555 -s 2 -d 3 -p tcp -e 1040 -c 0 -i 14 -a 0 -x {0.0 3.0 8 ------- null}
h -t 0.664403555555555 -s 2 -d 3 -p tcp -e 1040 -c 0 -i 14 -a 0 -x {0.0 3.0 -1 ------- null}
r -t 0.666067555555555 -s 0 -d 2 -p tcp -e 1040 -c 0 -i 17 -a 0 -x {0.0 3.0 10 ------- null}
+ -t 0.666067555555555 -s 2 -d 3 -p tcp -e 1040 -c 0 -i 17 -a 0 -x {0.0 3.0 10 ------- null}
r -t 0.671228444444444 -s 2 -d 0 -p ack -e 40 -c 0 -i 15 -a 0 -x {3.0 0.0 6 ------- null}
+ -t 0.671228444444444 -s 0 -d 2 -p tcp -e 1040 -c 0 -i 20 -a 0 -x {0.0 3.0 13 ------- null}
- -t 0.671228444444444 -s 0 -d 2 -p tcp -e 1040 -c 0 -i 20 -a 0 -x {0.0 3.0 13 ------- null}
h -t 0.671228444444444 -s 0 -d 2 -p tcp -e 1040 -c 0 -i 20 -a 0 -x {0.0 3.0 -1 ------- null}
+ -t 0.671228444444444 -s 0 -d 2 -p tcp -e 1040 -c 0 -i 21 -a 0 -x {0.0 3.0 14 ------- null}
- -t 0.672892444444444 -s 0 -d 2 -p tcp -e 1040 -c 0 -i 21 -a 0 -x {0.0 3.0 14 ------- null}
h -t 0.672892444444444 -s 0 -d 2 -p tcp -e 1040 -c 0 -i 21 -a 0 -x {0.0 3.0 -1 ------- null}
r -t 0.673648 -s 0 -d 2 -p tcp -e 1040 -c 0 -i 18 -a 0 -x {0.0 3.0 11 ------- null}
+ -t 0.673648 -s 2 -d 3 -p tcp -e 1040 -c 0 -i 18 -a 0 -x {0.0 3.0 11 ------- null}
- -t 0.673648 -s 2 -d 3 -p tcp -e 1040 -c 0 -i 16 -a 0 -x {0.0 3.0 9 ------- null}
h -t 0.673648 -s 2 -d 3 -p tcp -e 1040 -c 0 -i 16 -a 0 -x {0.0 3.0 -1 ------- null}
r -t 0.674403555555555 -s 2 -d 3 -p tcp -e 1040 -c 0 -i 13 -a 0 -x {0.0 3.0 7 ------- null}
+ -t 0.674403555555555 -s 3 -d 2 -p ack -e 40 -c 0 -i 22 -a 0 -x {3.0 0.0 7 ------- null}
- -t 0.674403555555555 -s 3 -d 2 -p ack -e 40 -c 0 -i 22 -a 0 -x {3.0 0.0 7 ------- null}
h -t 0.674403555555555 -s 3 -d 2 -p ack -e 40 -c 0 -i 22 -a 0 -x {3.0 0.0 -1 ------- null}
r -t 0.675312 -s 0 -d 2 -p tcp -e 1040 -c 0 -i 19 -a 0 -x {0.0 3.0 12 ------- null}
+ -t 0.675312 -s 2 -d 3 -p tcp -e 1040 -c 0 -i 19 -a 0 -x {0.0 3.0 12 ------- null}
r -t 0.682892444444444 -s 0 -d 2 -p tcp -e 1040 -c 0 -i 20 -a 0 -x {0.0 3.0 13 ------- null}
+ -t 0.682892444444444 -s 2 -d 3 -p tcp -e 1040 -c 0 -i 20 -a 0 -x {0.0 3.0 13 ------- null}
- -t 0.682892444444444 -s 2 -d 3 -p tcp -e 1040 -c 0 -i 17 -a 0 -x {0.0 3.0 10 ------- null}
h -t 0.682892444444444 -s 2 -d 3 -p tcp -e 1040 -c 0 -i 17 -a 0 -x {0.0 3.0 -1 ------- null}
r -t 0.683648 -s 2 -d 3 -p tcp -e 1040 -c 0 -i 14 -a 0 -x {0.0 3.0 8 ------- null}
+ -t 0.683648 -s 3 -d 2 -p ack -e 40 -c 0 -i 23 -a 0 -x {3.0 0.0 8 ------- null}
- -t 0.683648 -s 3 -d 2 -p ack -e 40 -c 0 -i 23 -a 0 -x {3.0 0.0 8 ------- null}
h -t 0.683648 -s 3 -d 2 -p ack -e 40 -c 0 -i 23 -a 0 -x {3.0 0.0 -1 ------- null}
r -t 0.684556444444444 -s 0 -d 2 -p tcp -e 1040 -c 0 -i 21 -a 0 -x {0.0 3.0 14 ------- null}
+ -t 0.684556444444444 -s 2 -d 3 -p tcp -e 1040 -c 0 -i 21 -a 0 -x {0.0 3.0 14 ------- null}
r -t 0.684759111111111 -s 3 -d 2 -p ack -e 40 -c 0 -i 22 -a 0 -x {3.0 0.0 7 ------- null}
+ -t 0.684759111111111 -s 2 -d 0 -p ack -e 40 -c 0 -i 22 -a 0 -x {3.0 0.0 7 ------- null}
- -t 0.684759111111111 -s 2 -d 0 -p ack -e 40 -c 0 -i 22 -a 0 -x {3.0 0.0 7 ------- null}
h -t 0.684759111111111 -s 2 -d 0 -p ack -e 40 -c 0 -i 22 -a 0 -x {3.0 0.0 -1 ------- null}
- -t 0.692136888888889 -s 2 -d 3 -p tcp -e 1040 -c 0 -i 18 -a 0 -x {0.0 3.0 11 ------- null}
h -t 0.692136888888889 -s 2 -d 3 -p tcp -e 1040 -c 0 -i 18 -a 0 -x {0.0 3.0 -1 ------- null}
r -t 0.692892444444444 -s 2 -d 3 -p tcp -e 1040 -c 0 -i 16 -a 0 -x {0.0 3.0 9 ------- null}
+ -t 0.692892444444444 -s 3 -d 2 -p ack -e 40 -c 0 -i 24 -a 0 -x {3.0 0.0 9 ------- null}
- -t 0.692892444444444 -s 3 -d 2 -p ack -e 40 -c 0 -i 24 -a 0 -x {3.0 0.0 9 ------- null}
h -t 0.692892444444444 -s 3 -d 2 -p ack -e 40 -c 0 -i 24 -a 0 -x {3.0 0.0 -1 ------- null}
r -t 0.694003555555555 -s 3 -d 2 -p ack -e 40 -c 0 -i 23 -a 0 -x {3.0 0.0 8 ------- null}
+ -t 0.694003555555555 -s 2 -d 0 -p ack -e 40 -c 0 -i 23 -a 0 -x {3.0 0.0 8 ------- null}
- -t 0.694003555555555 -s 2 -d 0 -p ack -e 40 -c 0 -i 23 -a 0 -x {3.0 0.0 8 ------- null}
h -t 0.694003555555555 -s 2 -d 0 -p ack -e 40 -c 0 -i 23 -a 0 -x {3.0 0.0 -1 ------- null}
r -t 0.694823111111111 -s 2 -d 0 -p ack -e 40 -c 0 -i 22 -a 0 -x {3.0 0.0 7 ------- null}
+ -t 0.694823111111111 -s 0 -d 2 -p tcp -e 1040 -c 0 -i 25 -a 0 -x {0.0 3.0 15 ------- null}
- -t 0.694823111111111 -s 0 -d 2 -p tcp -e 1040 -c 0 -i 25 -a 0 -x {0.0 3.0 15 ------- null}
h -t 0.694823111111111 -s 0 -d 2 -p tcp -e 1040 -c 0 -i 25 -a 0 -x {0.0 3.0 -1 ------- null}
+ -t 0.694823111111111 -s 0 -d 2 -p tcp -e 1040 -c 0 -i 26 -a 0 -x {0.0 3.0 16 ------- null}
- -t 0.696487111111111 -s 0 -d 2 -p tcp -e 1040 -c 0 -i 26 -a 0 -x {0.0 3.0 16 ------- null}
h -t 0.696487111111111 -s 0 -d 2 -p tcp -e 1040 -c 0 -i 26 -a 0 -x {0.0 3.0 -1 ------- null}
- -t 0.701381333333333 -s 2 -d 3 -p tcp -e 1040 -c 0 -i 19 -a 0 -x {0.0 3.0 12 ------- null}
h -t 0.701381333333333 -s 2 -d 3 -p tcp -e 1040 -c 0 -i 19 -a 0 -x {0.0 3.0 -1 ------- null}
r -t 0.702136888888889 -s 2 -d 3 -p tcp -e 1040 -c 0 -i 17 -a 0 -x {0.0 3.0 10 ------- null}
+ -t 0.702136888888889 -s 3 -d 2 -p ack -e 40 -c 0 -i 27 -a 0 -x {3.0 0.0 10 ------- null}
- -t 0.702136888888889 -s 3 -d 2 -p ack -e 40 -c 0 -i 27 -a 0 -x {3.0 0.0 10 ------- null}
h -t 0.702136888888889 -s 3 -d 2 -p ack -e 40 -c 0 -i 27 -a 0 -x {3.0 0.0 -1 ------- null}
r -t 0.703248 -s 3 -d 2 -p ack -e 40 -c 0 -i 24 -a 0 -x {3.0 0.0 9 ------- null}
+ -t 0.703248 -s 2 -d 0 -p ack -e 40 -c 0 -i 24 -a 0 -x {3.0 0.0 9 ------- null}
- -t 0.703248 -s 2 -d 0 -p ack -e 40 -c 0 -i 24 -a 0 -x {3.0 0.0 9 ------- null}
h -t 0.703248 -s 2 -d 0 -p ack -e 40 -c 0 -i 24 -a 0 -x {3.0 0.0 -1 ------- null}
r -t 0.704067555555555 -s 2 -d 0 -p ack -e 40 -c 0 -i 23 -a 0 -x {3.0 0.0 8 ------- null}
+ -t 0.704067555555555 -s 0 -d 2 -p tcp -e 1040 -c 0 -i 28 -a 0 -x {0.0 3.0 17 ------- null}
- -t 0.704067555555555 -s 0 -d 2 -p tcp -e 1040 -c 0 -i 28 -a 0 -x {0.0 3.0 17 ------- null}
h -t 0.704067555555555 -s 0 -d 2 -p tcp -e 1040 -c 0 -i 28 -a 0 -x {0.0 3.0 -1 ------- null}
+ -t 0.704067555555555 -s 0 -d 2 -p tcp -e 1040 -c 0 -i 29 -a 0 -x {0.0 3.0 18 ------- null}
- -t 0.705731555555555 -s 0 -d 2 -p tcp -e 1040 -c 0 -i 29 -a 0 -x {0.0 3.0 18 ------- null}
h -t 0.705731555555555 -s 0 -d 2 -p tcp -e 1040 -c 0 -i 29 -a 0 -x {0.0 3.0 -1 ------- null}
r -t 0.706487111111111 -s 0 -d 2 -p tcp -e 1040 -c 0 -i 25 -a 0 -x {0.0 3.0 15 ------- null}
+ -t 0.706487111111111 -s 2 -d 3 -p tcp -e 1040 -c 0 -i 25 -a 0 -x {0.0 3.0 15 ------- null}
r -t 0.708151111111111 -s 0 -d 2 -p tcp -e 1040 -c 0 -i 26 -a 0 -x {0.0 3.0 16 ------- null}
+ -t 0.708151111111111 -s 2 -d 3 -p tcp -e 1040 -c 0 -i 26 -a 0 -x {0.0 3.0 16 ------- null}
- -t 0.710625777777777 -s 2 -d 3 -p tcp -e 1040 -c 0 -i 20 -a 0 -x {0.0 3.0 13 ------- null}
h -t 0.710625777777777 -s 2 -d 3 -p tcp -e 1040 -c 0 -i 20 -a 0 -x {0.0 3.0 -1 ------- null}
r -t 0.711381333333333 -s 2 -d 3 -p tcp -e 1040 -c 0 -i 18 -a 0 -x {0.0 3.0 11 ------- null}
+ -t 0.711381333333333 -s 3 -d 2 -p ack -e 40 -c 0 -i 30 -a 0 -x {3.0 0.0 11 ------- null}
- -t 0.711381333333333 -s 3 -d 2 -p ack -e 40 -c 0 -i 30 -a 0 -x {3.0 0.0 11 ------- null}
h -t 0.711381333333333 -s 3 -d 2 -p ack -e 40 -c 0 -i 30 -a 0 -x {3.0 0.0 -1 ------- null}
r -t 0.712492444444444 -s 3 -d 2 -p ack -e 40 -c 0 -i 27 -a 0 -x {3.0 0.0 10 ------- null}
+ -t 0.712492444444444 -s 2 -d 0 -p ack -e 40 -c 0 -i 27 -a 0 -x {3.0 0.0 10 ------- null}
- -t 0.712492444444444 -s 2 -d 0 -p ack -e 40 -c 0 -i 27 -a 0 -x {3.0 0.0 10 ------- null}
h -t 0.712492444444444 -s 2 -d 0 -p ack -e 40 -c 0 -i 27 -a 0 -x {3.0 0.0 -1 ------- null}
r -t 0.713312 -s 2 -d 0 -p ack -e 40 -c 0 -i 24 -a 0 -x {3.0 0.0 9 ------- null}
+ -t 0.713312 -s 0 -d 2 -p tcp -e 1040 -c 0 -i 31 -a 0 -x {0.0 3.0 19 ------- null}
- -t 0.713312 -s 0 -d 2 -p tcp -e 1040 -c 0 -i 31 -a 0 -x {0.0 3.0 19 ------- null}
h -t 0.713312 -s 0 -d 2 -p tcp -e 1040 -c 0 -i 31 -a 0 -x {0.0 3.0 -1 ------- null}
+ -t 0.713312 -s 0 -d 2 -p tcp -e 1040 -c 0 -i 32 -a 0 -x {0.0 3.0 20 ------- null}
- -t 0.714976 -s 0 -d 2 -p tcp -e 1040 -c 0 -i 32 -a 0 -x {0.0 3.0 20 ------- null}
h -t 0.714976 -s 0 -d 2 -p tcp -e 1040 -c 0 -i 32 -a 0 -x {0.0 3.0 -1 ------- null}
r -t 0.715731555555555 -s 0 -d 2 -p tcp -e 1040 -c 0 -i 28 -a 0 -x {0.0 3.0 17 ------- null}
+ -t 0.715731555555555 -s 2 -d 3 -p tcp -e 1040 -c 0 -i 28 -a 0 -x {0.0 3.0 17 ------- null}
r -t 0.717395555555555 -s 0 -d 2 -p tcp -e 1040 -c 0 -i 29 -a 0 -x {0.0 3.0 18 ------- null}
+ -t 0.717395555555555 -s 2 -d 3 -p tcp -e 1040 -c 0 -i 29 -a 0 -x {0.0 3.0 18 ------- null}
- -t 0.719870222222222 -s 2 -d 3 -p tcp -e 1040 -c 0 -i 21 -a 0 -x {0.0 3.0 14 ------- null}
h -t 0.719870222222222 -s 2 -d 3 -p tcp -e 1040 -c 0 -i 21 -a 0 -x {0.0 3.0 -1 ------- null}
r -t 0.720625777777777 -s 2 -d 3 -p tcp -e 1040 -c 0 -i 19 -a 0 -x {0.0 3.0 12 ------- null}
+ -t 0.720625777777777 -s 3 -d 2 -p ack -e 40 -c 0 -i 33 -a 0 -x {3.0 0.0 12 ------- null}
- -t 0.720625777777777 -s 3 -d 2 -p ack -e 40 -c 0 -i 33 -a 0 -x {3.0 0.0 12 ------- null}
h -t 0.720625777777777 -s 3 -d 2 -p ack -e 40 -c 0 -i 33 -a 0 -x {3.0 0.0 -1 ------- null}
r -t 0.721736888888889 -s 3 -d 2 -p ack -e 40 -c 0 -i 30 -a 0 -x {3.0 0.0 11 ------- null}
+ -t 0.721736888888889 -s 2 -d 0 -p ack -e 40 -c 0 -i 30 -a 0 -x {3.0 0.0 11 ------- null}
- -t 0.721736888888889 -s 2 -d 0 -p ack -e 40 -c 0 -i 30 -a 0 -x {3.0 0.0 11 ------- null}
h -t 0.721736888888889 -s 2 -d 0 -p ack -e 40 -c 0 -i 30 -a 0 -x {3.0 0.0 -1 ------- null}
r -t 0.722556444444444 -s 2 -d 0 -p ack -e 40 -c 0 -i 27 -a 0 -x {3.0 0.0 10 ------- null}
+ -t 0.722556444444444 -s 0 -d 2 -p tcp -e 1040 -c 0 -i 34 -a 0 -x {0.0 3.0 21 ------- null}
- -t 0.722556444444444 -s 0 -d 2 -p tcp -e 1040 -c 0 -i 34 -a 0 -x {0.0 3.0 21 ------- null}
h -t 0.722556444444444 -s 0 -d 2 -p tcp -e 1040 -c 0 -i 34 -a 0 -x {0.0 3.0 -1 ------- null}
+ -t 0.722556444444444 -s 0 -d 2 -p tcp -e 1040 -c 0 -i 35 -a 0 -x {0.0 3.0 22 ------- null}
- -t 0.724220444444444 -s 0 -d 2 -p tcp -e 1040 -c 0 -i 35 -a 0 -x {0.0 3.0 22 ------- null}
h -t 0.724220444444444 -s 0 -d 2 -p tcp -e 1040 -c 0 -i 35 -a 0 -x {0.0 3.0 -1 ------- null}
r -t 0.724976 -s 0 -d 2 -p tcp -e 1040 -c 0 -i 31 -a 0 -x {0.0 3.0 19 ------- null}
+ -t 0.724976 -s 2 -d 3 -p tcp -e 1040 -c 0 -i 31 -a 0 -x {0.0 3.0 19 ------- null}
r -t 0.72664 -s 0 -d 2 -p tcp -e 1040 -c 0 -i 32 -a 0 -x {0.0 3.0 20 ------- null}
+ -t 0.72664 -s 2 -d 3 -p tcp -e 1040 -c 0 -i 32 -a 0 -x {0.0 3.0 20 ------- null}
- -t 0.729114666666666 -s 2 -d 3 -p tcp -e 1040 -c 0 -i 25 -a 0 -x {0.0 3.0 15 ------- null}
h -t 0.729114666666666 -s 2 -d 3 -p tcp -e 1040 -c 0 -i 25 -a 0 -x {0.0 3.0 -1 ------- null}
r -t 0.729870222222222 -s 2 -d 3 -p tcp -e 1040 -c 0 -i 20 -a 0 -x {0.0 3.0 13 ------- null}
+ -t 0.729870222222222 -s 3 -d 2 -p ack -e 40 -c 0 -i 36 -a 0 -x {3.0 0.0 13 ------- null}
- -t 0.729870222222222 -s 3 -d 2 -p ack -e 40 -c 0 -i 36 -a 0 -x {3.0 0.0 13 ------- null}
h -t 0.729870222222222 -s 3 -d 2 -p ack -e 40 -c 0 -i 36 -a 0 -x {3.0 0.0 -1 ------- null}
r -t 0.730981333333333 -s 3 -d 2 -p ack -e 40 -c 0 -i 33 -a 0 -x {3.0 0.0 12 ------- null}
+ -t 0.730981333333333 -s 2 -d 0 -p ack -e 40 -c 0 -i 33 -a 0 -x {3.0 0.0 12 ------- null}
- -t 0.730981333333333 -s 2 -d 0 -p ack -e 40 -c 0 -i 33 -a 0 -x {3.0 0.0 12 ------- null}
h -t 0.730981333333333 -s 2 -d 0 -p ack -e 40 -c 0 -i 33 -a 0 -x {3.0 0.0 -1 ------- null}
r -t 0.731800888888889 -s 2 -d 0 -p ack -e 40 -c 0 -i 30 -a 0 -x {3.0 0.0 11 ------- null}
+ -t 0.731800888888889 -s 0 -d 2 -p tcp -e 1040 -c 0 -i 37 -a 0 -x {0.0 3.0 23 ------- null}
- -t 0.731800888888889 -s 0 -d 2 -p tcp -e 1040 -c 0 -i 37 -a 0 -x {0.0 3.0 23 ------- null}
h -t 0.731800888888889 -s 0 -d 2 -p tcp -e 1040 -c 0 -i 37 -a 0 -x {0.0 3.0 -1 ------- null}
+ -t 0.731800888888889 -s 0 -d 2 -p tcp -e 1040 -c 0 -i 38 -a 0 -x {0.0 3.0 24 ------- null}
- -t 0.733464888888888 -s 0 -d 2 -p tcp -e 1040 -c 0 -i 38 -a 0 -x {0.0 3.0 24 ------- null}
h -t 0.733464888888888 -s 0 -d 2 -p tcp -e 1040 -c 0 -i 38 -a 0 -x {0.0 3.0 -1 ------- null}
r -t 0.734220444444444 -s 0 -d 2 -p tcp -e 1040 -c 0 -i 34 -a 0 -x {0.0 3.0 21 ------- null}
+ -t 0.734220444444444 -s 2 -d 3 -p tcp -e 1040 -c 0 -i 34 -a 0 -x {0.0 3.0 21 ------- null}
r -t 0.735884444444444 -s 0 -d 2 -p tcp -e 1040 -c 0 -i 35 -a 0 -x {0.0 3.0 22 ------- null}
+ -t 0.735884444444444 -s 2 -d 3 -p tcp -e 1040 -c 0 -i 35 -a 0 -x {0.0 3.0 22 ------- null}
- -t 0.738359111111111 -s 2 -d 3 -p tcp -e 1040 -c 0 -i 26 -a 0 -x {0.0 3.0 16 ------- null}
h -t 0.738359111111111 -s 2 -d 3 -p tcp -e 1040 -c 0 -i 26 -a 0 -x {0.0 3.0 -1 ------- null}
r -t 0.739114666666666 -s 2 -d 3 -p tcp -e 1040 -c 0 -i 21 -a 0 -x {0.0 3.0 14 ------- null}
+ -t 0.739114666666666 -s 3 -d 2 -p ack -e 40 -c 0 -i 39 -a 0 -x {3.0 0.0 14 ------- null}
- -t 0.739114666666666 -s 3 -d 2 -p ack -e 40 -c 0 -i 39 -a 0 -x {3.0 0.0 14 ------- null}
h -t 0.739114666666666 -s 3 -d 2 -p ack -e 40 -c 0 -i 39 -a 0 -x {3.0 0.0 -1 ------- null}
r -t 0.740225777777777 -s 3 -d 2 -p ack -e 40 -c 0 -i 36 -a 0 -x {3.0 0.0 13 ------- null}
+ -t 0.740225777777777 -s 2 -d 0 -p ack -e 40 -c 0 -i 36 -a 0 -x {3.0 0.0 13 ------- null}
- -t 0.740225777777777 -s 2 -d 0 -p ack -e 40 -c 0 -i 36 -a 0 -x {3.0 0.0 13 ------- null}
h -t 0.740225777777777 -s 2 -d 0 -p ack -e 40 -c 0 -i 36 -a 0 -x {3.0 0.0 -1 ------- null}
r -t 0.741045333333333 -s 2 -d 0 -p ack -e 40 -c 0 -i 33 -a 0 -x {3.0 0.0 12 ------- null}
+ -t 0.741045333333333 -s 0 -d 2 -p tcp -e 1040 -c 0 -i 40 -a 0 -x {0.0 3.0 25 ------- null}
- -t 0.741045333333333 -s 0 -d 2 -p tcp -e 1040 -c 0 -i 40 -a 0 -x {0.0 3.0 25 ------- null}
h -t 0.741045333333333 -s 0 -d 2 -p tcp -e 1040 -c 0 -i 40 -a 0 -x {0.0 3.0 -1 ------- null}
+ -t 0.741045333333333 -s 0 -d 2 -p tcp -e 1040 -c 0 -i 41 -a 0 -x {0.0 3.0 26 ------- null}
- -t 0.742709333333333 -s 0 -d 2 -p tcp -e 1040 -c 0 -i 41 -a 0 -x {0.0 3.0 26 ------- null}
h -t 0.742709333333333 -s 0 -d 2 -p tcp -e 1040 -c 0 -i 41 -a 0 -x {0.0 3.0 -1 ------- null}
r -t 0.743464888888889 -s 0 -d 2 -p tcp -e 1040 -c 0 -i 37 -a 0 -x {0.0 3.0 23 ------- null}
+ -t 0.743464888888889 -s 2 -d 3 -p tcp -e 1040 -c 0 -i 37 -a 0 -x {0.0 3.0 23 ------- null}
r -t 0.745128888888889 -s 0 -d 2 -p tcp -e 1040 -c 0 -i 38 -a 0 -x {0.0 3.0 24 ------- null}
+ -t 0.745128888888889 -s 2 -d 3 -p tcp -e 1040 -c 0 -i 38 -a 0 -x {0.0 3.0 24 ------- null}
- -t 0.747603555555555 -s 2 -d 3 -p tcp -e 1040 -c 0 -i 28 -a 0 -x {0.0 3.0 17 ------- null}
h -t 0.747603555555555 -s 2 -d 3 -p tcp -e 1040 -c 0 -i 28 -a 0 -x {0.0 3.0 -1 ------- null}
r -t 0.748359111111111 -s 2 -d 3 -p tcp -e 1040 -c 0 -i 25 -a 0 -x {0.0 3.0 15 ------- null}
+ -t 0.748359111111111 -s 3 -d 2 -p ack -e 40 -c 0 -i 42 -a 0 -x {3.0 0.0 15 ------- null}
- -t 0.748359111111111 -s 3 -d 2 -p ack -e 40 -c 0 -i 42 -a 0 -x {3.0 0.0 15 ------- null}
h -t 0.748359111111111 -s 3 -d 2 -p ack -e 40 -c 0 -i 42 -a 0 -x {3.0 0.0 -1 ------- null}
r -t 0.749470222222222 -s 3 -d 2 -p ack -e 40 -c 0 -i 39 -a 0 -x {3.0 0.0 14 ------- null}
+ -t 0.749470222222222 -s 2 -d 0 -p ack -e 40 -c 0 -i 39 -a 0 -x {3.0 0.0 14 ------- null}
- -t 0.749470222222222 -s 2 -d 0 -p ack -e 40 -c 0 -i 39 -a 0 -x {3.0 0.0 14 ------- null}
h -t 0.749470222222222 -s 2 -d 0 -p ack -e 40 -c 0 -i 39 -a 0 -x {3.0 0.0 -1 ------- null}
r -t 0.750289777777777 -s 2 -d 0 -p ack -e 40 -c 0 -i 36 -a 0 -x {3.0 0.0 13 ------- null}
+ -t 0.750289777777777 -s 0 -d 2 -p tcp -e 1040 -c 0 -i 43 -a 0 -x {0.0 3.0 27 ------- null}
- -t 0.750289777777777 -s 0 -d 2 -p tcp -e 1040 -c 0 -i 43 -a 0 -x {0.0 3.0 27 ------- null}
h -t 0.750289777777777 -s 0 -d 2 -p tcp -e 1040 -c 0 -i 43 -a 0 -x {0.0 3.0 -1 ------- null}
+ -t 0.750289777777777 -s 0 -d 2 -p tcp -e 1040 -c 0 -i 44 -a 0 -x {0.0 3.0 28 ------- null}
- -t 0.751953777777777 -s 0 -d 2 -p tcp -e 1040 -c 0 -i 44 -a 0 -x {0.0 3.0 28 ------- null}
h -t 0.751953777777777 -s 0 -d 2 -p tcp -e 1040 -c 0 -i 44 -a 0 -x {0.0 3.0 -1 ------- null}
r -t 0.752709333333333 -s 0 -d 2 -p tcp -e 1040 -c 0 -i 40 -a 0 -x {0.0 3.0 25 ------- null}
+ -t 0.752709333333333 -s 2 -d 3 -p tcp -e 1040 -c 0 -i 40 -a 0 -x {0.0 3.0 25 ------- null}
r -t 0.754373333333333 -s 0 -d 2 -p tcp -e 1040 -c 0 -i 41 -a 0 -x {0.0 3.0 26 ------- null}
+ -t 0.754373333333333 -s 2 -d 3 -p tcp -e 1040 -c 0 -i 41 -a 0 -x {0.0 3.0 26 ------- null}
- -t 0.756847999999999 -s 2 -d 3 -p tcp -e 1040 -c 0 -i 29 -a 0 -x {0.0 3.0 18 ------- null}
h -t 0.756847999999999 -s 2 -d 3 -p tcp -e 1040 -c 0 -i 29 -a 0 -x {0.0 3.0 -1 ------- null}
r -t 0.757603555555555 -s 2 -d 3 -p tcp -e 1040 -c 0 -i 26 -a 0 -x {0.0 3.0 16 ------- null}
+ -t 0.757603555555555 -s 3 -d 2 -p ack -e 40 -c 0 -i 45 -a 0 -x {3.0 0.0 16 ------- null}
- -t 0.757603555555555 -s 3 -d 2 -p ack -e 40 -c 0 -i 45 -a 0 -x {3.0 0.0 16 ------- null}
h -t 0.757603555555555 -s 3 -d 2 -p ack -e 40 -c 0 -i 45 -a 0 -x {3.0 0.0 -1 ------- null}
r -t 0.758714666666666 -s 3 -d 2 -p ack -e 40 -c 0 -i 42 -a 0 -x {3.0 0.0 15 ------- null}
+ -t 0.758714666666666 -s 2 -d 0 -p ack -e 40 -c 0 -i 42 -a 0 -x {3.0 0.0 15 ------- null}
- -t 0.758714666666666 -s 2 -d 0 -p ack -e 40 -c 0 -i 42 -a 0 -x {3.0 0.0 15 ------- null}
h -t 0.758714666666666 -s 2 -d 0 -p ack -e 40 -c 0 -i 42 -a 0 -x {3.0 0.0 -1 ------- null}
r -t 0.759534222222222 -s 2 -d 0 -p ack -e 40 -c 0 -i 39 -a 0 -x {3.0 0.0 14 ------- null}
+ -t 0.759534222222222 -s 0 -d 2 -p tcp -e 1040 -c 0 -i 46 -a 0 -x {0.0 3.0 29 ------- null}
- -t 0.759534222222222 -s 0 -d 2 -p tcp -e 1040 -c 0 -i 46 -a 0 -x {0.0 3.0 29 ------- null}