+ 0.5 0 2 tcp 40 ------- 0 0.0 3.0 0 0
- 0.5 0 2 tcp 40 ------- 0 0.0 3.0 0 0
r 0.510064 0 2 tcp 40 ------- 0 0.0 3.0 0 0
+ 0.510064 2 3 tcp 40 ------- 0 0.0 3.0 0 0
- 0.510064 2 3 tcp 40 ------- 0 0.0 3.0 0 0
r 0.52042 2 3 tcp 40 ------- 0 0.0 3.0 0 0
+ 0.52042 3 2 ack 40 ------- 0 3.0 0.0 0 1
- 0.52042 3 2 ack 40 ------- 0 3.0 0.0 0 1
r 0.530775 3 2 ack 40 ------- 0 3.0 0.0 0 1
+ 0.530775 2 0 ack 40 ------- 0 3.0 0.0 0 1
- 0.530775 2 0 ack 40 ------- 0 3.0 0.0 0 1
r 0.540839 2 0 ack 40 ------- 0 3.0 0.0 0 1
+ 0.540839 0 2 tcp 1040 ------- 0 0.0 3.0 1 2
- 0.540839 0 2 tcp 1040 ------- 0 0.0 3.0 1 2
+ 0.540839 0 2 tcp 1040 ------- 0 0.0 3.0 2 3
- 0.542503 0 2 tcp 1040 ------- 0 0.0 3.0 2 3
r 0.552503 0 2 tcp 1040 ------- 0 0.0 3.0 1 2
+ 0.552503 2 3 tcp 1040 ------- 0 0.0 3.0 1 2
- 0.552503 2 3 tcp 1040 ------- 0 0.0 3.0 1 2
r 0.554167 0 2 tcp 1040 ------- 0 0.0 3.0 2 3
+ 0.554167 2 3 tcp 1040 ------- 0 0.0 3.0 2 3
- 0.561748 2 3 tcp 1040 ------- 0 0.0 3.0 2 3
r 0.571748 2 3 tcp 1040 ------- 0 0.0 3.0 1 2
+ 0.571748 3 2 ack 40 ------- 0 3.0 0.0 1 4
- 0.571748 3 2 ack 40 ------- 0 3.0 0.0 1 4
r 0.580992 2 3 tcp 1040 ------- 0 0.0 3.0 2 3
+ 0.580992 3 2 ack 40 ------- 0 3.0 0.0 2 5
- 0.580992 3 2 ack 40 ------- 0 3.0 0.0 2 5
r 0.582103 3 2 ack 40 ------- 0 3.0 0.0 1 4
+ 0.582103 2 0 ack 40 ------- 0 3.0 0.0 1 4
- 0.582103 2 0 ack 40 ------- 0 3.0 0.0 1 4
r 0.591348 3 2 ack 40 ------- 0 3.0 0.0 2 5
+ 0.591348 2 0 ack 40 ------- 0 3.0 0.0 2 5
- 0.591348 2 0 ack 40 ------- 0 3.0 0.0 2 5
r 0.592167 2 0 ack 40 ------- 0 3.0 0.0 1 4
+ 0.592167 0 2 tcp 1040 ------- 0 0.0 3.0 3 6
- 0.592167 0 2 tcp 1040 ------- 0 0.0 3.0 3 6
+ 0.592167 0 2 tcp 1040 ------- 0 0.0 3.0 4 7
- 0.593831 0 2 tcp 1040 ------- 0 0.0 3.0 4 7
r 0.601412 2 0 ack 40 ------- 0 3.0 0.0 2 5
+ 0.601412 0 2 tcp 1040 ------- 0 0.0 3.0 5 8
- 0.601412 0 2 tcp 1040 ------- 0 0.0 3.0 5 8
+ 0.601412 0 2 tcp 1040 ------- 0 0.0 3.0 6 9
- 0.603076 0 2 tcp 1040 ------- 0 0.0 3.0 6 9
r 0.603831 0 2 tcp 1040 ------- 0 0.0 3.0 3 6
+ 0.603831 2 3 tcp 1040 ------- 0 0.0 3.0 3 6
- 0.603831 2 3 tcp 1040 ------- 0 0.0 3.0 3 6
r 0.605495 0 2 tcp 1040 ------- 0 0.0 3.0 4 7
+ 0.605495 2 3 tcp 1040 ------- 0 0.0 3.0 4 7
- 0.613076 2 3 tcp 1040 ------- 0 0.0 3.0 4 7
r 0.613076 0 2 tcp 1040 ------- 0 0.0 3.0 5 8
+ 0.613076 2 3 tcp 1040 ------- 0 0.0 3.0 5 8
r 0.61474 0 2 tcp 1040 ------- 0 0.0 3.0 6 9
+ 0.61474 2 3 tcp 1040 ------- 0 0.0 3.0 6 9
- 0.62232 2 3 tcp 1040 ------- 0 0.0 3.0 5 8
r 0.623076 2 3 tcp 1040 ------- 0 0.0 3.0 3 6
+ 0.623076 3 2 ack 40 ------- 0 3.0 0.0 3 10
- 0.623076 3 2 ack 40 ------- 0 3.0 0.0 3 10
- 0.631564 2 3 tcp 1040 ------- 0 0.0 3.0 6 9
r 0.63232 2 3 tcp 1040 ------- 0 0.0 3.0 4 7
+ 0.63232 3 2 ack 40 ------- 0 3.0 0.0 4 11
- 0.63232 3 2 ack 40 ------- 0 3.0 0.0 4 11
r 0.633431 3 2 ack 40 ------- 0 3.0 0.0 3 10
+ 0.633431 2 0 ack 40 ------- 0 3.0 0.0 3 10
- 0.633431 2 0 ack 40 ------- 0 3.0 0.0 3 10
r 0.641564 2 3 tcp 1040 ------- 0 0.0 3.0 5 8
+ 0.641564 3 2 ack 40 ------- 0 3.0 0.0 5 12
- 0.641564 3 2 ack 40 ------- 0 3.0 0.0 5 12
r 0.642676 3 2 ack 40 ------- 0 3.0 0.0 4 11
+ 0.642676 2 0 ack 40 ------- 0 3.0 0.0 4 11
- 0.642676 2 0 ack 40 ------- 0 3.0 0.0 4 11
r 0.643495 2 0 ack 40 ------- 0 3.0 0.0 3 10
+ 0.643495 0 2 tcp 1040 ------- 0 0.0 3.0 7 13
- 0.643495 0 2 tcp 1040 ------- 0 0.0 3.0 7 13
+ 0.643495 0 2 tcp 1040 ------- 0 0.0 3.0 8 14
- 0.645159 0 2 tcp 1040 ------- 0 0.0 3.0 8 14
r 0.650809 2 3 tcp 1040 ------- 0 0.0 3.0 6 9
+ 0.650809 3 2 ack 40 ------- 0 3.0 0.0 6 15
- 0.650809 3 2 ack 40 ------- 0 3.0 0.0 6 15
r 0.65192 3 2 ack 40 ------- 0 3.0 0.0 5 12
+ 0.65192 2 0 ack 40 ------- 0 3.0 0.0 5 12
- 0.65192 2 0 ack 40 ------- 0 3.0 0.0 5 12
r 0.65274 2 0 ack 40 ------- 0 3.0 0.0 4 11
+ 0.65274 0 2 tcp 1040 ------- 0 0.0 3.0 9 16
- 0.65274 0 2 tcp 1040 ------- 0 0.0 3.0 9 16
+ 0.65274 0 2 tcp 1040 ------- 0 0.0 3.0 10 17
- 0.654404 0 2 tcp 1040 ------- 0 0.0 3.0 10 17
r 0.655159 0 2 tcp 1040 ------- 0 0.0 3.0 7 13
+ 0.655159 2 3 tcp 1040 ------- 0 0.0 3.0 7 13
- 0.655159 2 3 tcp 1040 ------- 0 0.0 3.0 7 13
r 0.656823 0 2 tcp 1040 ------- 0 0.0 3.0 8 14
+ 0.656823 2 3 tcp 1040 ------- 0 0.0 3.0 8 14
r 0.661164 3 2 ack 40 ------- 0 3.0 0.0 6 15
+ 0.661164 2 0 ack 40 ------- 0 3.0 0.0 6 15
- 0.661164 2 0 ack 40 ------- 0 3.0 0.0 6 15
r 0.661984 2 0 ack 40 ------- 0 3.0 0.0 5 12
+ 0.661984 0 2 tcp 1040 ------- 0 0.0 3.0 11 18
- 0.661984 0 2 tcp 1040 ------- 0 0.0 3.0 11 18
+ 0.661984 0 2 tcp 1040 ------- 0 0.0 3.0 12 19
- 0.663648 0 2 tcp 1040 ------- 0 0.0 3.0 12 19
r 0.664404 0 2 tcp 1040 ------- 0 0.0 3.0 9 16
+ 0.664404 2 3 tcp 1040 ------- 0 0.0 3.0 9 16
- 0.664404 2 3 tcp 1040 ------- 0 0.0 3.0 8 14
r 0.666068 0 2 tcp 1040 ------- 0 0.0 3.0 10 17
+ 0.666068 2 3 tcp 1040 ------- 0 0.0 3.0 10 17
r 0.671228 2 0 ack 40 ------- 0 3.0 0.0 6 15
+ 0.671228 0 2 tcp 1040 ------- 0 0.0 3.0 13 20
- 0.671228 0 2 tcp 1040 ------- 0 0.0 3.0 13 20
+ 0.671228 0 2 tcp 1040 ------- 0 0.0 3.0 14 21
- 0.672892 0 2 tcp 1040 ------- 0 0.0 3.0 14 21
r 0.673648 0 2 tcp 1040 ------- 0 0.0 3.0 11 18
+ 0.673648 2 3 tcp 1040 ------- 0 0.0 3.0 11 18
- 0.673648 2 3 tcp 1040 ------- 0 0.0 3.0 9 16
r 0.674404 2 3 tcp 1040 ------- 0 0.0 3.0 7 13
+ 0.674404 3 2 ack 40 ------- 0 3.0 0.0 7 22
- 0.674404 3 2 ack 40 ------- 0 3.0 0.0 7 22
r 0.675312 0 2 tcp 1040 ------- 0 0.0 3.0 12 19
+ 0.675312 2 3 tcp 1040 ------- 0 0.0 3.0 12 19
r 0.682892 0 2 tcp 1040 ------- 0 0.0 3.0 13 20
+ 0.682892 2 3 tcp 1040 ------- 0 0.0 3.0 13 20
- 0.682892 2 3 tcp 1040 ------- 0 0.0 3.0 10 17
r 0.683648 2 3 tcp 1040 ------- 0 0.0 3.0 8 14
+ 0.683648 3 2 ack 40 ------- 0 3.0 0.0 8 23
- 0.683648 3 2 ack 40 ------- 0 3.0 0.0 8 23
r 0.684556 0 2 tcp 1040 ------- 0 0.0 3.0 14 21
+ 0.684556 2 3 tcp 1040 ------- 0 0.0 3.0 14 21
r 0.684759 3 2 ack 40 ------- 0 3.0 0.0 7 22
+ 0.684759 2 0 ack 40 ------- 0 3.0 0.0 7 22
- 0.684759 2 0 ack 40 ------- 0 3.0 0.0 7 22
- 0.692137 2 3 tcp 1040 ------- 0 0.0 3.0 11 18
r 0.692892 2 3 tcp 1040 ------- 0 0.0 3.0 9 16
+ 0.692892 3 2 ack 40 ------- 0 3.0 0.0 9 24
- 0.692892 3 2 ack 40 ------- 0 3.0 0.0 9 24
r 0.694004 3 2 ack 40 ------- 0 3.0 0.0 8 23
+ 0.694004 2 0 ack 40 ------- 0 3.0 0.0 8 23
- 0.694004 2 0 ack 40 ------- 0 3.0 0.0 8 23
r 0.694823 2 0 ack 40 ------- 0 3.0 0.0 7 22
+ 0.694823 0 2 tcp 1040 ------- 0 0.0 3.0 15 25
- 0.694823 0 2 tcp 1040 ------- 0 0.0 3.0 15 25
+ 0.694823 0 2 tcp 1040 ------- 0 0.0 3.0 16 26
- 0.696487 0 2 tcp 1040 ------- 0 0.0 3.0 16 26
- 0.701381 2 3 tcp 1040 ------- 0 0.0 3.0 12 19
r 0.702137 2 3 tcp 1040 ------- 0 0.0 3.0 10 17
+ 0.702137 3 2 ack 40 ------- 0 3.0 0.0 10 27
- 0.702137 3 2 ack 40 ------- 0 3.0 0.0 10 27
r 0.703248 3 2 ack 40 ------- 0 3.0 0.0 9 24
+ 0.703248 2 0 ack 40 ------- 0 3.0 0.0 9 24
- 0.703248 2 0 ack 40 ------- 0 3.0 0.0 9 24
r 0.704068 2 0 ack 40 ------- 0 3.0 0.0 8 23
+ 0.704068 0 2 tcp 1040 ------- 0 0.0 3.0 17 28
- 0.704068 0 2 tcp 1040 ------- 0 0.0 3.0 17 28
+ 0.704068 0 2 tcp 1040 ------- 0 0.0 3.0 18 29
- 0.705732 0 2 tcp 1040 ------- 0 0.0 3.0 18 29
r 0.706487 0 2 tcp 1040 ------- 0 0.0 3.0 15 25
+ 0.706487 2 3 tcp 1040 ------- 0 0.0 3.0 15 25
r 0.708151 0 2 tcp 1040 ------- 0 0.0 3.0 16 26
+ 0.708151 2 3 tcp 1040 ------- 0 0.0 3.0 16 26
- 0.710626 2 3 tcp 1040 ------- 0 0.0 3.0 13 20
r 0.711381 2 3 tcp 1040 ------- 0 0.0 3.0 11 18
+ 0.711381 3 2 ack 40 ------- 0 3.0 0.0 11 30
- 0.711381 3 2 ack 40 ------- 0 3.0 0.0 11 30
r 0.712492 3 2 ack 40 ------- 0 3.0 0.0 10 27
+ 0.712492 2 0 ack 40 ------- 0 3.0 0.0 10 27
- 0.712492 2 0 ack 40 ------- 0 3.0 0.0 10 27
r 0.713312 2 0 ack 40 ------- 0 3.0 0.0 9 24
+ 0.713312 0 2 tcp 1040 ------- 0 0.0 3.0 19 31
- 0.713312 0 2 tcp 1040 ------- 0 0.0 3.0 19 31
+ 0.713312 0 2 tcp 1040 ------- 0 0.0 3.0 20 32
- 0.714976 0 2 tcp 1040 ------- 0 0.0 3.0 20 32
r 0.715732 0 2 tcp 1040 ------- 0 0.0 3.0 17 28
+ 0.715732 2 3 tcp 1040 ------- 0 0.0 3.0 17 28
r 0.717396 0 2 tcp 1040 ------- 0 0.0 3.0 18 29
+ 0.717396 2 3 tcp 1040 ------- 0 0.0 3.0 18 29
- 0.71987 2 3 tcp 1040 ------- 0 0.0 3.0 14 21
r 0.720626 2 3 tcp 1040 ------- 0 0.0 3.0 12 19
+ 0.720626 3 2 ack 40 ------- 0 3.0 0.0 12 33
- 0.720626 3 2 ack 40 ------- 0 3.0 0.0 12 33
r 0.721737 3 2 ack 40 ------- 0 3.0 0.0 11 30
+ 0.721737 2 0 ack 40 ------- 0 3.0 0.0 11 30
- 0.721737 2 0 ack 40 ------- 0 3.0 0.0 11 30
r 0.722556 2 0 ack 40 ------- 0 3.0 0.0 10 27
+ 0.722556 0 2 tcp 1040 ------- 0 0.0 3.0 21 34
- 0.722556 0 2 tcp 1040 ------- 0 0.0 3.0 21 34
+ 0.722556 0 2 tcp 1040 ------- 0 0.0 3.0 22 35
- 0.72422 0 2 tcp 1040 ------- 0 0.0 3.0 22 35
r 0.724976 0 2 tcp 1040 ------- 0 0.0 3.0 19 31
+ 0.724976 2 3 tcp 1040 ------- 0 0.0 3.0 19 31
r 0.72664 0 2 tcp 1040 ------- 0 0.0 3.0 20 32
+ 0.72664 2 3 tcp 1040 ------- 0 0.0 3.0 20 32
- 0.729115 2 3 tcp 1040 ------- 0 0.0 3.0 15 25
r 0.72987 2 3 tcp 1040 ------- 0 0.0 3.0 13 20
+ 0.72987 3 2 ack 40 ------- 0 3.0 0.0 13 36
- 0.72987 3 2 ack 40 ------- 0 3.0 0.0 13 36
r 0.730981 3 2 ack 40 ------- 0 3.0 0.0 12 33
+ 0.730981 2 0 ack 40 ------- 0 3.0 0.0 12 33
- 0.730981 2 0 ack 40 ------- 0 3.0 0.0 12 33
r 0.731801 2 0 ack 40 ------- 0 3.0 0.0 11 30
+ 0.731801 0 2 tcp 1040 ------- 0 0.0 3.0 23 37
- 0.731801 0 2 tcp 1040 ------- 0 0.0 3.0 23 37
+ 0.731801 0 2 tcp 1040 ------- 0 0.0 3.0 24 38
- 0.733465 0 2 tcp 1040 ------- 0 0.0 3.0 24 38
r 0.73422 0 2 tcp 1040 ------- 0 0.0 3.0 21 34
+ 0.73422 2 3 tcp 1040 ------- 0 0.0 3.0 21 34
r 0.735884 0 2 tcp 1040 ------- 0 0.0 3.0 22 35
+ 0.735884 2 3 tcp 1040 ------- 0 0.0 3.0 22 35
- 0.738359 2 3 tcp 1040 ------- 0 0.0 3.0 16 26
r 0.739115 2 3 tcp 1040 ------- 0 0.0 3.0 14 21
+ 0.739115 3 2 ack 40 ------- 0 3.0 0.0 14 39
- 0.739115 3 2 ack 40 ------- 0 3.0 0.0 14 39
r 0.740226 3 2 ack 40 ------- 0 3.0 0.0 13 36
+ 0.740226 2 0 ack 40 ------- 0 3.0 0.0 13 36
- 0.740226 2 0 ack 40 ------- 0 3.0 0.0 13 36
r 0.741045 2 0 ack 40 ------- 0 3.0 0.0 12 33
+ 0.741045 0 2 tcp 1040 ------- 0 0.0 3.0 25 40
- 0.741045 0 2 tcp 1040 ------- 0 0.0 3.0 25 40
+ 0.741045 0 2 tcp 1040 ------- 0 0.0 3.0 26 41
- 0.742709 0 2 tcp 1040 ------- 0 0.0 3.0 26 41
r 0.743465 0 2 tcp 1040 ------- 0 0.0 3.0 23 37
+ 0.743465 2 3 tcp 1040 ------- 0 0.0 3.0 23 37
r 0.745129 0 2 tcp 1040 ------- 0 0.0 3.0 24 38
+ 0.745129 2 3 tcp 1040 ------- 0 0.0 3.0 24 38
- 0.747604 2 3 tcp 1040 ------- 0 0.0 3.0 17 28
r 0.748359 2 3 tcp 1040 ------- 0 0.0 3.0 15 25
+ 0.748359 3 2 ack 40 ------- 0 3.0 0.0 15 42
- 0.748359 3 2 ack 40 ------- 0 3.0 0.0 15 42
r 0.74947 3 2 ack 40 ------- 0 3.0 0.0 14 39
+ 0.74947 2 0 ack 40 ------- 0 3.0 0.0 14 39
- 0.74947 2 0 ack 40 ------- 0 3.0 0.0 14 39
r 0.75029 2 0 ack 40 ------- 0 3.0 0.0 13 36
+ 0.75029 0 2 tcp 1040 ------- 0 0.0 3.0 27 43
- 0.75029 0 2 tcp 1040 ------- 0 0.0 3.0 27 43
+ 0.75029 0 2 tcp 1040 ------- 0 0.0 3.0 28 44
- 0.751954 0 2 tcp 1040 ------- 0 0.0 3.0 28 44
r 0.752709 0 2 tcp 1040 ------- 0 0.0 3.0 25 40
+ 0.752709 2 3 tcp 1040 ------- 0 0.0 3.0 25 40
r 0.754373 0 2 tcp 1040 ------- 0 0.0 3.0 26 41
+ 0.754373 2 3 tcp 1040 ------- 0 0.0 3.0 26 41
- 0.756848 2 3 tcp 1040 ------- 0 0.0 3.0 18 29
r 0.757604 2 3 tcp 1040 ------- 0 0.0 3.0 16 26
+ 0.757604 3 2 ack 40 ------- 0 3.0 0.0 16 45
- 0.757604 3 2 ack 40 ------- 0 3.0 0.0 16 45
r 0.758715 3 2 ack 40 ------- 0 3.0 0.0 15 42
+ 0.758715 2 0 ack 40 ------- 0 3.0 0.0 15 42
- 0.758715 2 0 ack 40 ------- 0 3.0 0.0 15 42
r 0.759534 2 0 ack 40 ------- 0 3.0 0.0 14 39
+ 0.759534 0 2 tcp 1040 ------- 0 0.0 3.0 29 46
- 0.759534 0 2 tcp 1040 ------- 0 0.0 3.0 29 46
+ 0.759534 0 2 tcp 1040 ------- 0 0.0 3.0 30 47
- 0.761198 0 2 tcp 1040 ------- 0 0.0 3.0 30 47
r 0.761954 0 2 tcp 1040 ------- 0 0.0 3.0 27 43
+ 0.761954 2 3 tcp 1040 ------- 0 0.0 3.0 27 43
r 0.763618 0 2 tcp 1040 ------- 0 0.0 3.0 28 44
+ 0.763618 2 3 tcp 1040 ------- 0 0.0 3.0 28 44
- 0.766092 2 3 tcp 1040 ------- 0 0.0 3.0 19 31
r 0.766848 2 3 tcp 1040 ------- 0 0.0 3.0 17 28
+ 0.766848 3 2 ack 40 ------- 0 3.0 0.0 17 48
- 0.766848 3 2 ack 40 ------- 0 3.0 0.0 17 48
r 0.767959 3 2 ack 40 ------- 0 3.0 0.0 16 45
+ 0.767959 2 0 ack 40 ------- 0 3.0 0.0 16 45
- 0.767959 2 0 ack 40 ------- 0 3.0 0.0 16 45
r 0.768779 2 0 ack 40 ------- 0 3.0 0.0 15 42
+ 0.768779 0 2 tcp 1040 ------- 0 0.0 3.0 31 49
- 0.768779 0 2 tcp 1040 ------- 0 0.0 3.0 31 49
+ 0.768779 0 2 tcp 1040 ------- 0 0.0 3.0 32 50
- 0.770443 0 2 tcp 1040 ------- 0 0.0 3.0 32 50
r 0.771198 0 2 tcp 1040 ------- 0 0.0 3.0 29 46
+ 0.771198 2 3 tcp 1040 ------- 0 0.0 3.0 29 46
r 0.772862 0 2 tcp 1040 ------- 0 0.0 3.0 30 47
+ 0.772862 2 3 tcp 1040 ------- 0 0.0 3.0 30 47
- 0.775337 2 3 tcp 1040 ------- 0 0.0 3.0 20 32
r 0.776092 2 3 tcp 1040 ------- 0 0.0 3.0 18 29
+ 0.776092 3 2 ack 40 ------- 0 3.0 0.0 18 51
- 0.776092 3 2 ack 40 ------- 0 3.0 0.0 18 51
r 0.777204 3 2 ack 40 ------- 0 3.0 0.0 17 48
+ 0.777204 2 0 ack 40 ------- 0 3.0 0.0 17 48
- 0.777204 2 0 ack 40 ------- 0 3.0 0.0 17 48
r 0.778023 2 0 ack 40 ------- 0 3.0 0.0 16 45
+ 0.778023 0 2 tcp 1040 ------- 0 0.0 3.0 33 52
- 0.778023 0 2 tcp 1040 ------- 0 0.0 3.0 33 52
+ 0.778023 0 2 tcp 1040 ------- 0 0.0 3.0 34 53
- 0.779687 0 2 tcp 1040 ------- 0 0.0 3.0 34 53
r 0.780443 0 2 tcp 1040 ------- 0 0.0 3.0 31 49
+ 0.780443 2 3 tcp 1040 ------- 0 0.0 3.0 31 49
r 0.782107 0 2 tcp 1040 ------- 0 0.0 3.0 32 50
+ 0.782107 2 3 tcp 1040 ------- 0 0.0 3.0 32 50
- 0.784581 2 3 tcp 1040 ------- 0 0.0 3.0 21 34
r 0.785337 2 3 tcp 1040 ------- 0 0.0 3.0 19 31
+ 0.785337 3 2 ack 40 ------- 0 3.0 0.0 19 54
- 0.785337 3 2 ack 40 ------- 0 3.0 0.0 19 54
r 0.786448 3 2 ack 40 ------- 0 3.0 0.0 18 51
+ 0.786448 2 0 ack 40 ------- 0 3.0 0.0 18 51
- 0.786448 2 0 ack 40 ------- 0 3.0 0.0 18 51
r 0.787268 2 0 ack 40 ------- 0 3.0 0.0 17 48
+ 0.787268 0 2 tcp 1040 ------- 0 0.0 3.0 35 55
- 0.787268 0 2 tcp 1040 ------- 0 0.0 3.0 35 55
+ 0.787268 0 2 tcp 1040 ------- 0 0.0 3.0 36 56
- 0.788932 0 2 tcp 1040 ------- 0 0.0 3.0 36 56
r 0.789687 0 2 tcp 1040 ------- 0 0.0 3.0 33 52
+ 0.789687 2 3 tcp 1040 ------- 0 0.0 3.0 33 52
r 0.791351 0 2 tcp 1040 ------- 0 0.0 3.0 34 53
+ 0.791351 2 3 tcp 1040 ------- 0 0.0 3.0 34 53
- 0.793826 2 3 tcp 1040 ------- 0 0.0 3.0 22 35
r 0.794581 2 3 tcp 1040 ------- 0 0.0 3.0 20 32
+ 0.794581 3 2 ack 40 ------- 0 3.0 0.0 20 57
- 0.794581 3 2 ack 40 ------- 0 3.0 0.0 20 57
r 0.795692 3 2 ack 40 ------- 0 3.0 0.0 19 54
+ 0.795692 2 0 ack 40 ------- 0 3.0 0.0 19 54
- 0.795692 2 0 ack 40 ------- 0 3.0 0.0 19 54
r 0.796512 2 0 ack 40 ------- 0 3.0 0.0 18 51
+ 0.796512 0 2 tcp 1040 ------- 0 0.0 3.0 37 58
- 0.796512 0 2 tcp 1040 ------- 0 0.0 3.0 37 58
+ 0.796512 0 2 tcp 1040 ------- 0 0.0 3.0 38 59
- 0.798176 0 2 tcp 1040 ------- 0 0.0 3.0 38 59
r 0.798932 0 2 tcp 1040 ------- 0 0.0 3.0 35 55
+ 0.798932 2 3 tcp 1040 ------- 0 0.0 3.0 35 55
r 0.800596 0 2 tcp 1040 ------- 0 0.0 3.0 36 56
+ 0.800596 2 3 tcp 1040 ------- 0 0.0 3.0 36 56
- 0.80307 2 3 tcp 1040 ------- 0 0.0 3.0 23 37
r 0.803826 2 3 tcp 1040 ------- 0 0.0 3.0 21 34
+ 0.803826 3 2 ack 40 ------- 0 3.0 0.0 21 60
- 0.803826 3 2 ack 40 ------- 0 3.0 0.0 21 60
r 0.804937 3 2 ack 40 ------- 0 3.0 0.0 20 57
+ 0.804937 2 0 ack 40 ------- 0 3.0 0.0 20 57
- 0.804937 2 0 ack 40 ------- 0 3.0 0.0 20 57
r 0.805756 2 0 ack 40 ------- 0 3.0 0.0 19 54
+ 0.805756 0 2 tcp 1040 ------- 0 0.0 3.0 39 61
- 0.805756 0 2 tcp 1040 ------- 0 0.0 3.0 39 61
r 0.808176 0 2 tcp 1040 ------- 0 0.0 3.0 37 58
+ 0.808176 2 3 tcp 1040 ------- 0 0.0 3.0 37 58
r 0.80984 0 2 tcp 1040 ------- 0 0.0 3.0 38 59
+ 0.80984 2 3 tcp 1040 ------- 0 0.0 3.0 38 59
- 0.812315 2 3 tcp 1040 ------- 0 0.0 3.0 24 38
r 0.81307 2 3 tcp 1040 ------- 0 0.0 3.0 22 35
+ 0.81307 3 2 ack 40 ------- 0 3.0 0.0 22 62
- 0.81307 3 2 ack 40 ------- 0 3.0 0.0 22 62
r 0.814181 3 2 ack 40 ------- 0 3.0 0.0 21 60
+ 0.814181 2 0 ack 40 ------- 0 3.0 0.0 21 60
- 0.814181 2 0 ack 40 ------- 0 3.0 0.0 21 60
r 0.815001 2 0 ack 40 ------- 0 3.0 0.0 20 57
+ 0.815001 0 2 tcp 1040 ------- 0 0.0 3.0 40 63
- 0.815001 0 2 tcp 1040 ------- 0 0.0 3.0 40 63
r 0.81742 0 2 tcp 1040 ------- 0 0.0 3.0 39 61
+ 0.81742 2 3 tcp 1040 ------- 0 0.0 3.0 39 61
- 0.821559 2 3 tcp 1040 ------- 0 0.0 3.0 25 40
r 0.822315 2 3 tcp 1040 ------- 0 0.0 3.0 23 37
+ 0.822315 3 2 ack 40 ------- 0 3.0 0.0 23 64
- 0.822315 3 2 ack 40 ------- 0 3.0 0.0 23 64
r 0.823426 3 2 ack 40 ------- 0 3.0 0.0 22 62
+ 0.823426 2 0 ack 40 ------- 0 3.0 0.0 22 62
- 0.823426 2 0 ack 40 ------- 0 3.0 0.0 22 62
r 0.824245 2 0 ack 40 ------- 0 3.0 0.0 21 60
+ 0.824245 0 2 tcp 1040 ------- 0 0.0 3.0 41 65
- 0.824245 0 2 tcp 1040 ------- 0 0.0 3.0 41 65
r 0.826665 0 2 tcp 1040 ------- 0 0.0 3.0 40 63
+ 0.826665 2 3 tcp 1040 ------- 0 0.0 3.0 40 63
- 0.830804 2 3 tcp 1040 ------- 0 0.0 3.0 26 41
r 0.831559 2 3 tcp 1040 ------- 0 0.0 3.0 24 38
+ 0.831559 3 2 ack 40 ------- 0 3.0 0.0 24 66
- 0.831559 3 2 ack 40 ------- 0 3.0 0.0 24 66
r 0.83267 3 2 ack 40 ------- 0 3.0 0.0 23 64
+ 0.83267 2 0 ack 40 ------- 0 3.0 0.0 23 64
- 0.83267 2 0 ack 40 ------- 0 3.0 0.0 23 64
r 0.83349 2 0 ack 40 ------- 0 3.0 0.0 22 62
+ 0.83349 0 2 tcp 1040 ------- 0 0.0 3.0 42 67
- 0.83349 0 2 tcp 1040 ------- 0 0.0 3.0 42 67
r 0.835909 0 2 tcp 1040 ------- 0 0.0 3.0 41 65
+ 0.835909 2 3 tcp 1040 ------- 0 0.0 3.0 41 65
- 0.840048 2 3 tcp 1040 ------- 0 0.0 3.0 27 43
r 0.840804 2 3 tcp 1040 ------- 0 0.0 3.0 25 40
+ 0.840804 3 2 ack 40 ------- 0 3.0 0.0 25 68
- 0.840804 3 2 ack 40 ------- 0 3.0 0.0 25 68
r 0.841915 3 2 ack 40 ------- 0 3.0 0.0 24 66
+ 0.841915 2 0 ack 40 ------- 0 3.0 0.0 24 66
- 0.841915 2 0 ack 40 ------- 0 3.0 0.0 24 66
r 0.842734 2 0 ack 40 ------- 0 3.0 0.0 23 64
+ 0.842734 0 2 tcp 1040 ------- 0 0.0 3.0 43 69
- 0.842734 0 2 tcp 1040 ------- 0 0.0 3.0 43 69
r 0.845154 0 2 tcp 1040 ------- 0 0.0 3.0 42 67
+ 0.845154 2 3 tcp 1040 ------- 0 0.0 3.0 42 67
- 0.849292 2 3 tcp 1040 ------- 0 0.0 3.0 28 44
r 0.850048 2 3 tcp 1040 ------- 0 0.0 3.0 26 41
+ 0.850048 3 2 ack 40 ------- 0 3.0 0.0 26 70
- 0.850048 3 2 ack 40 ------- 0 3.0 0.0 26 70
r 0.851159 3 2 ack 40 ------- 0 3.0 0.0 25 68
+ 0.851159 2 0 ack 40 ------- 0 3.0 0.0 25 68
- 0.851159 2 0 ack 40 ------- 0 3.0 0.0 25 68
r 0.851979 2 0 ack 40 ------- 0 3.0 0.0 24 66
+ 0.851979 0 2 tcp 1040 ------- 0 0.0 3.0 44 71
- 0.851979 0 2 tcp 1040 ------- 0 0.0 3.0 44 71
r 0.854398 0 2 tcp 1040 ------- 0 0.0 3.0 43 69
+ 0.854398 2 3 tcp 1040 ------- 0 0.0 3.0 43 69
- 0.858537 2 3 tcp 1040 ------- 0 0.0 3.0 29 46
r 0.859292 2 3 tcp 1040 ------- 0 0.0 3.0 27 43
+ 0.859292 3 2 ack 40 ------- 0 3.0 0.0 27 72
- 0.859292 3 2 ack 40 ------- 0 3.0 0.0 27 72
r 0.860404 3 2 ack 40 ------- 0 3.0 0.0 26 70
+ 0.860404 2 0 ack 40 ------- 0 3.0 0.0 26 70
- 0.860404 2 0 ack 40 ------- 0 3.0 0.0 26 70
r 0.861223 2 0 ack 40 ------- 0 3.0 0.0 25 68
+ 0.861223 0 2 tcp 1040 ------- 0 0.0 3.0 45 73
- 0.861223 0 2 tcp 1040 ------- 0 0.0 3.0 45 73
r 0.863643 0 2 tcp 1040 ------- 0 0.0 3.0 44 71
+ 0.863643 2 3 tcp 1040 ------- 0 0.0 3.0 44 71
- 0.867781 2 3 tcp 1040 ------- 0 0.0 3.0 30 47
r 0.868537 2 3 tcp 1040 ------- 0 0.0 3.0 28 44
+ 0.868537 3 2 ack 40 ------- 0 3.0 0.0 28 74
- 0.868537 3 2 ack 40 ------- 0 3.0 0.0 28 74
r 0.869648 3 2 ack 40 ------- 0 3.0 0.0 27 72
+ 0.869648 2 0 ack 40 ------- 0 3.0 0.0 27 72
- 0.869648 2 0 ack 40 ------- 0 3.0 0.0 27 72
r 0.870468 2 0 ack 40 ------- 0 3.0 0.0 26 70
+ 0.870468 0 2 tcp 1040 ------- 0 0.0 3.0 46 75
- 0.870468 0 2 tcp 1040 ------- 0 0.0 3.0 46 75
r 0.872887 0 2 tcp 1040 ------- 0 0.0 3.0 45 73
+ 0.872887 2 3 tcp 1040 ------- 0 0.0 3.0 45 73
- 0.877026 2 3 tcp 1040 ------- 0 0.0 3.0 31 49
r 0.877781 2 3 tcp 1040 ------- 0 0.0 3.0 29 46
+ 0.877781 3 2 ack 40 ------- 0 3.0 0.0 29 76
- 0.877781 3 2 ack 40 ------- 0 3.0 0.0 29 76
r 0.878892 3 2 ack 40 ------- 0 3.0 0.0 28 74
+ 0.878892 2 0 ack 40 ------- 0 3.0 0.0 28 74
- 0.878892 2 0 ack 40 ------- 0 3.0 0.0 28 74
r 0.879712 2 0 ack 40 ------- 0 3.0 0.0 27 72
+ 0.879712 0 2 tcp 1040 ------- 0 0.0 3.0 47 77
- 0.879712 0 2 tcp 1040 ------- 0 0.0 3.0 47 77
r 0.882132 0 2 tcp 1040 ------- 0 0.0 3.0 46 75
+ 0.882132 2 3 tcp 1040 ------- 0 0.0 3.0 46 75
- 0.88627 2 3 tcp 1040 ------- 0 0.0 3.0 32 50
r 0.887026 2 3 tcp 1040 ------- 0 0.0 3.0 30 47
+ 0.887026 3 2 ack 40 ------- 0 3.0 0.0 30 78
- 0.887026 3 2 ack 40 ------- 0 3.0 0.0 30 78
r 0.888137 3 2 ack 40 ------- 0 3.0 0.0 29 76
+ 0.888137 2 0 ack 40 ------- 0 3.0 0.0 29 76
- 0.888137 2 0 ack 40 ------- 0 3.0 0.0 29 76
r 0.888956 2 0 ack 40 ------- 0 3.0 0.0 28 74
+ 0.888956 0 2 tcp 1040 ------- 0 0.0 3.0 48 79
- 0.888956 0 2 tcp 1040 ------- 0 0.0 3.0 48 79
r 0.891376 0 2 tcp 1040 ------- 0 0.0 3.0 47 77
+ 0.891376 2 3 tcp 1040 ------- 0 0.0 3.0 47 77
- 0.895515 2 3 tcp 1040 ------- 0 0.0 3.0 33 52
r 0.89627 2 3 tcp 1040 ------- 0 0.0 3.0 31 49
+ 0.89627 3 2 ack 40 ------- 0 3.0 0.0 31 80
- 0.89627 3 2 ack 40 ------- 0 3.0 0.0 31 80
r 0.897381 3 2 ack 40 ------- 0 3.0 0.0 30 78
+ 0.897381 2 0 ack 40 ------- 0 3.0 0.0 30 78
- 0.897381 2 0 ack 40 ------- 0 3.0 0.0 30 78
r 0.898201 2 0 ack 40 ------- 0 3.0 0.0 29 76
+ 0.898201 0 2 tcp 1040 ------- 0 0.0 3.0 49 81
- 0.898201 0 2 tcp 1040 ------- 0 0.0 3.0 49 81
r 0.90062 0 2 tcp 1040 ------- 0 0.0 3.0 48 79
+ 0.90062 2 3 tcp 1040 ------- 0 0.0 3.0 48 79
- 0.904759 2 3 tcp 1040 ------- 0 0.0 3.0 34 53
r 0.905515 2 3 tcp 1040 ------- 0 0.0 3.0 32 50
+ 0.905515 3 2 ack 40 ------- 0 3.0 0.0 32 82
- 0.905515 3 2 ack 40 ------- 0 3.0 0.0 32 82
r 0.906626 3 2 ack 40 ------- 0 3.0 0.0 31 80
+ 0.906626 2 0 ack 40 ------- 0 3.0 0.0 31 80
- 0.906626 2 0 ack 40 ------- 0 3.0 0.0 31 80
r 0.907445 2 0 ack 40 ------- 0 3.0 0.0 30 78
+ 0.907445 0 2 tcp 1040 ------- 0 0.0 3.0 50 83
- 0.907445 0 2 tcp 1040 ------- 0 0.0 3.0 50 83
r 0.909865 0 2 tcp 1040 ------- 0 0.0 3.0 49 81
+ 0.909865 2 3 tcp 1040 ------- 0 0.0 3.0 49 81
- 0.914004 2 3 tcp 1040 ------- 0 0.0 3.0 35 55
r 0.914759 2 3 tcp 1040 ------- 0 0.0 3.0 33 52
+ 0.914759 3 2 ack 40 ------- 0 3.0 0.0 33 84
- 0.914759 3 2 ack 40 ------- 0 3.0 0.0 33 84
r 0.91587 3 2 ack 40 ------- 0 3.0 0.0 32 82
+ 0.91587 2 0 ack 40 ------- 0 3.0 0.0 32 82
- 0.91587 2 0 ack 40 ------- 0 3.0 0.0 32 82
r 0.91669 2 0 ack 40 ------- 0 3.0 0.0 31 80
+ 0.91669 0 2 tcp 1040 ------- 0 0.0 3.0 51 85
- 0.91669 0 2 tcp 1040 ------- 0 0.0 3.0 51 85
r 0.919109 0 2 tcp 1040 ------- 0 0.0 3.0 50 83
+ 0.919109 2 3 tcp 1040 ------- 0 0.0 3.0 50 83
- 0.923248 2 3 tcp 1040 ------- 0 0.0 3.0 36 56
r 0.924004 2 3 tcp 1040 ------- 0 0.0 3.0 34 53
+ 0.924004 3 2 ack 40 ------- 0 3.0 0.0 34 86
- 0.924004 3 2 ack 40 ------- 0 3.0 0.0 34 86
r 0.925115 3 2 ack 40 ------- 0 3.0 0.0 33 84
+ 0.925115 2 0 ack 40 ------- 0 3.0 0.0 33 84
- 0.925115 2 0 ack 40 ------- 0 3.0 0.0 33 84
r 0.925934 2 0 ack 40 ------- 0 3.0 0.0 32 82
+ 0.925934 0 2 tcp 1040 ------- 0 0.0 3.0 52 87
- 0.925934 0 2 tcp 1040 ------- 0 0.0 3.0 52 87
r 0.928354 0 2 tcp 1040 ------- 0 0.0 3.0 51 85
+ 0.928354 2 3 tcp 1040 ------- 0 0.0 3.0 51 85
- 0.932492 2 3 tcp 1040 ------- 0 0.0 3.0 37 58
r 0.933248 2 3 tcp 1040 ------- 0 0.0 3.0 35 55
+ 0.933248 3 2 ack 40 ------- 0 3.0 0.0 35 88
- 0.933248 3 2 ack 40 ------- 0 3.0 0.0 35 88
r 0.934359 3 2 ack 40 ------- 0 3.0 0.0 34 86
+ 0.934359 2 0 ack 40 ------- 0 3.0 0.0 34 86
- 0.934359 2 0 ack 40 ------- 0 3.0 0.0 34 86
r 0.935179 2 0 ack 40 ------- 0 3.0 0.0 33 84
+ 0.935179 0 2 tcp 1040 ------- 0 0.0 3.0 53 89
- 0.935179 0 2 tcp 1040 ------- 0 0.0 3.0 53 89
r 0.937598 0 2 tcp 1040 ------- 0 0.0 3.0 52 87
+ 0.937598 2 3 tcp 1040 ------- 0 0.0 3.0 52 87
- 0.941737 2 3 tcp 1040 ------- 0 0.0 3.0 38 59
r 0.942492 2 3 tcp 1040 ------- 0 0.0 3.0 36 56
+ 0.942492 3 2 ack 40 ------- 0 3.0 0.0 36 90
- 0.942492 3 2 ack 40 ------- 0 3.0 0.0 36 90
r 0.943604 3 2 ack 40 ------- 0 3.0 0.0 35 88
+ 0.943604 2 0 ack 40 ------- 0 3.0 0.0 35 88
- 0.943604 2 0 ack 40 ------- 0 3.0 0.0 35 88
r 0.944423 2 0 ack 40 ------- 0 3.0 0.0 34 86
+ 0.944423 0 2 tcp 1040 ------- 0 0.0 3.0 54 91
- 0.944423 0 2 tcp 1040 ------- 0 0.0 3.0 54 91
r 0.946843 0 2 tcp 1040 ------- 0 0.0 3.0 53 89
+ 0.946843 2 3 tcp 1040 ------- 0 0.0 3.0 53 89
- 0.950981 2 3 tcp 1040 ------- 0 0.0 3.0 39 61
r 0.951737 2 3 tcp 1040 ------- 0 0.0 3.0 37 58
+ 0.951737 3 2 ack 40 ------- 0 3.0 0.0 37 92
- 0.951737 3 2 ack 40 ------- 0 3.0 0.0 37 92
r 0.952848 3 2 ack 40 ------- 0 3.0 0.0 36 90
+ 0.952848 2 0 ack 40 ------- 0 3.0 0.0 36 90
- 0.952848 2 0 ack 40 ------- 0 3.0 0.0 36 90
r 0.953668 2 0 ack 40 ------- 0 3.0 0.0 35 88
+ 0.953668 0 2 tcp 1040 ------- 0 0.0 3.0 55 93
- 0.953668 0 2 tcp 1040 ------- 0 0.0 3.0 55 93
r 0.956087 0 2 tcp 1040 ------- 0 0.0 3.0 54 91
+ 0.956087 2 3 tcp 1040 ------- 0 0.0 3.0 54 91
- 0.960226 2 3 tcp 1040 ------- 0 0.0 3.0 40 63
r 0.960981 2 3 tcp 1040 ------- 0 0.0 3.0 38 59
+ 0.960981 3 2 ack 40 ------- 0 3.0 0.0 38 94
- 0.960981 3 2 ack 40 ------- 0 3.0 0.0 38 94
r 0.962092 3 2 ack 40 ------- 0 3.0 0.0 37 92
+ 0.962092 2 0 ack 40 ------- 0 3.0 0.0 37 92
- 0.962092 2 0 ack 40 ------- 0 3.0 0.0 37 92
r 0.962912 2 0 ack 40 ------- 0 3.0 0.0 36 90
+ 0.962912 0 2 tcp 1040 ------- 0 0.0 3.0 56 95
- 0.962912 0 2 tcp 1040 ------- 0 0.0 3.0 56 95
r 0.965332 0 2 tcp 1040 ------- 0 0.0 3.0 55 93
+ 0.965332 2 3 tcp 1040 ------- 0 0.0 3.0 55 93
- 0.96947 2 3 tcp 1040 ------- 0 0.0 3.0 41 65
r 0.970226 2 3 tcp 1040 ------- 0 0.0 3.0 39 61
+ 0.970226 3 2 ack 40 ------- 0 3.0 0.0 39 96
- 0.970226 3 2 ack 40 ------- 0 3.0 0.0 39 96
r 0.971337 3 2 ack 40 ------- 0 3.0 0.0 38 94
+ 0.971337 2 0 ack 40 ------- 0 3.0 0.0 38 94
- 0.971337 2 0 ack 40 ------- 0 3.0 0.0 38 94
r 0.972156 2 0 ack 40 ------- 0 3.0 0.0 37 92
+ 0.972156 0 2 tcp 1040 ------- 0 0.0 3.0 57 97
- 0.972156 0 2 tcp 1040 ------- 0 0.0 3.0 57 97
r 0.974576 0 2 tcp 1040 ------- 0 0.0 3.0 56 95
+ 0.974576 2 3 tcp 1040 ------- 0 0.0 3.0 56 95
- 0.978715 2 3 tcp 1040 ------- 0 0.0 3.0 42 67
r 0.97947 2 3 tcp 1040 ------- 0 0.0 3.0 40 63
+ 0.97947 3 2 ack 40 ------- 0 3.0 0.0 40 98
- 0.97947 3 2 ack 40 ------- 0 3.0 0.0 40 98
r 0.980581 3 2 ack 40 ------- 0 3.0 0.0 39 96
+ 0.980581 2 0 ack 40 ------- 0 3.0 0.0 39 96
- 0.980581 2 0 ack 40 ------- 0 3.0 0.0 39 96
r 0.981401 2 0 ack 40 ------- 0 3.0 0.0 38 94
+ 0.981401 0 2 tcp 1040 ------- 0 0.0 3.0 58 99
- 0.981401 0 2 tcp 1040 ------- 0 0.0 3.0 58 99
r 0.98382 0 2 tcp 1040 ------- 0 0.0 3.0 57 97
+ 0.98382 2 3 tcp 1040 ------- 0 0.0 3.0 57 97
- 0.987959 2 3 tcp 1040 ------- 0 0.0 3.0 43 69
r 0.988715 2 3 tcp 1040 ------- 0 0.0 3.0 41 65
+ 0.988715 3 2 ack 40 ------- 0 3.0 0.0 41 100
- 0.988715 3 2 ack 40 ------- 0 3.0 0.0 41 100
r 0.989826 3 2 ack 40 ------- 0 3.0 0.0 40 98
+ 0.989826 2 0 ack 40 ------- 0 3.0 0.0 40 98
- 0.989826 2 0 ack 40 ------- 0 3.0 0.0 40 98
r 0.990645 2 0 ack 40 ------- 0 3.0 0.0 39 96
+ 0.990645 0 2 tcp 1040 ------- 0 0.0 3.0 59 101
- 0.990645 0 2 tcp 1040 ------- 0 0.0 3.0 59 101
r 0.993065 0 2 tcp 1040 ------- 0 0.0 3.0 58 99
+ 0.993065 2 3 tcp 1040 ------- 0 0.0 3.0 58 99
- 0.997204 2 3 tcp 1040 ------- 0 0.0 3.0 44 71
r 0.997959 2 3 tcp 1040 ------- 0 0.0 3.0 42 67
+ 0.997959 3 2 ack 40 ------- 0 3.0 0.0 42 102
- 0.997959 3 2 ack 40 ------- 0 3.0 0.0 42 102
r 0.99907 3 2 ack 40 ------- 0 3.0 0.0 41 100
+ 0.99907 2 0 ack 40 ------- 0 3.0 0.0 41 100
- 0.99907 2 0 ack 40 ------- 0 3.0 0.0 41 100
r 0.99989 2 0 ack 40 ------- 0 3.0 0.0 40 98
+ 0.99989 0 2 tcp 1040 ------- 0 0.0 3.0 60 103
- 0.99989 0 2 tcp 1040 ------- 0 0.0 3.0 60 103
+ 1 1 2 cbr 500 ------- 0 1.0 3.1 0 104
- 1 1 2 cbr 500 ------- 0 1.0 3.1 0 104
r 1.002309 0 2 tcp 1040 ------- 0 0.0 3.0 59 101
+ 1.002309 2 3 tcp 1040 ------- 0 0.0 3.0 59 101
+ 1.005 1 2 cbr 500 ------- 0 1.0 3.1 1 105
- 1.005 1 2 cbr 500 ------- 0 1.0 3.1 1 105
- 1.006448 2 3 tcp 1040 ------- 0 0.0 3.0 45 73
r 1.007204 2 3 tcp 1040 ------- 0 0.0 3.0 43 69
+ 1.007204 3 2 ack 40 ------- 0 3.0 0.0 43 106
- 1.007204 3 2 ack 40 ------- 0 3.0 0.0 43 106
r 1.008315 3 2 ack 40 ------- 0 3.0 0.0 42 102
+ 1.008315 2 0 ack 40 ------- 0 3.0 0.0 42 102
- 1.008315 2 0 ack 40 ------- 0 3.0 0.0 42 102
r 1.009134 2 0 ack 40 ------- 0 3.0 0.0 41 100
+ 1.009134 0 2 tcp 1040 ------- 0 0.0 3.0 61 107
- 1.009134 0 2 tcp 1040 ------- 0 0.0 3.0 61 107
+ 1.01 1 2 cbr 500 ------- 0 1.0 3.1 2 108
- 1.01 1 2 cbr 500 ------- 0 1.0 3.1 2 108
r 1.0108 1 2 cbr 500 ------- 0 1.0 3.1 0 104
+ 1.0108 2 3 cbr 500 ------- 0 1.0 3.1 0 104
r 1.011554 0 2 tcp 1040 ------- 0 0.0 3.0 60 103
+ 1.011554 2 3 tcp 1040 ------- 0 0.0 3.0 60 103
+ 1.015 1 2 cbr 500 ------- 0 1.0 3.1 3 109
- 1.015 1 2 cbr 500 ------- 0 1.0 3.1 3 109
- 1.015692 2 3 tcp 1040 ------- 0 0.0 3.0 46 75
r 1.0158 1 2 cbr 500 ------- 0 1.0 3.1 1 105
+ 1.0158 2 3 cbr 500 ------- 0 1.0 3.1 1 105
r 1.016448 2 3 tcp 1040 ------- 0 0.0 3.0 44 71
+ 1.016448 3 2 ack 40 ------- 0 3.0 0.0 44 110
- 1.016448 3 2 ack 40 ------- 0 3.0 0.0 44 110
r 1.017559 3 2 ack 40 ------- 0 3.0 0.0 43 106
+ 1.017559 2 0 ack 40 ------- 0 3.0 0.0 43 106
- 1.017559 2 0 ack 40 ------- 0 3.0 0.0 43 106
r 1.018379 2 0 ack 40 ------- 0 3.0 0.0 42 102
+ 1.018379 0 2 tcp 1040 ------- 0 0.0 3.0 62 111
- 1.018379 0 2 tcp 1040 ------- 0 0.0 3.0 62 111
+ 1.02 1 2 cbr 500 ------- 0 1.0 3.1 4 112
- 1.02 1 2 cbr 500 ------- 0 1.0 3.1 4 112
r 1.020798 0 2 tcp 1040 ------- 0 0.0 3.0 61 107
+ 1.020798 2 3 tcp 1040 ------- 0 0.0 3.0 61 107
r 1.0208 1 2 cbr 500 ------- 0 1.0 3.1 2 108
+ 1.0208 2 3 cbr 500 ------- 0 1.0 3.1 2 108
- 1.024937 2 3 tcp 1040 ------- 0 0.0 3.0 47 77
+ 1.025 1 2 cbr 500 ------- 0 1.0 3.1 5 113
- 1.025 1 2 cbr 500 ------- 0 1.0 3.1 5 113
r 1.025692 2 3 tcp 1040 ------- 0 0.0 3.0 45 73
+ 1.025692 3 2 ack 40 ------- 0 3.0 0.0 45 114
- 1.025692 3 2 ack 40 ------- 0 3.0 0.0 45 114
r 1.0258 1 2 cbr 500 ------- 0 1.0 3.1 3 109
+ 1.0258 2 3 cbr 500 ------- 0 1.0 3.1 3 109
r 1.026804 3 2 ack 40 ------- 0 3.0 0.0 44 110
+ 1.026804 2 0 ack 40 ------- 0 3.0 0.0 44 110
- 1.026804 2 0 ack 40 ------- 0 3.0 0.0 44 110
r 1.027623 2 0 ack 40 ------- 0 3.0 0.0 43 106
+ 1.027623 0 2 tcp 1040 ------- 0 0.0 3.0 63 115
- 1.027623 0 2 tcp 1040 ------- 0 0.0 3.0 63 115
+ 1.03 1 2 cbr 500 ------- 0 1.0 3.1 6 116
- 1.03 1 2 cbr 500 ------- 0 1.0 3.1 6 116
r 1.030043 0 2 tcp 1040 ------- 0 0.0 3.0 62 111
+ 1.030043 2 3 tcp 1040 ------- 0 0.0 3.0 62 111
r 1.0308 1 2 cbr 500 ------- 0 1.0 3.1 4 112
+ 1.0308 2 3 cbr 500 ------- 0 1.0 3.1 4 112