V -t * -v 1.0a5 -a 0
A -t * -n 1 -p 0 -o 0x7fffffff -c 30 -a 1
A -t * -h 1 -m 1073741823 -s 0
c -t * -i 1 -n red
c -t * -i 2 -n blue
n -t * -a 4 -s 4 -S UP -v circle -c blue -i blue
n -t * -a 0 -s 0 -S UP -v circle -c blue -i blue
n -t * -a 5 -s 5 -S UP -v box -c red -i red
n -t * -a 1 -s 1 -S UP -v box -c red -i red
n -t * -a 6 -s 6 -S UP -v circle -c black -i black
n -t * -a 2 -s 2 -S UP -v circle -c black -i black
n -t * -a 3 -s 3 -S UP -v circle -c black -i black
l -t * -s 0 -d 2 -S UP -r 1000000 -D 0.01 -c black -o right-down
l -t * -s 1 -d 2 -S UP -r 1000000 -D 0.01 -c black -o right-up
l -t * -s 2 -d 3 -S UP -r 300000 -D 0.10000000000000001 -c black -o left
X -t * -n 7 -r 0.5Mb -D 40ms -o left
L -t * -s 7 -d 3 -o up
L -t * -s 7 -d 4 -o down
L -t * -s 7 -d 5 -o up
L -t * -s 7 -d 6 -o down
n -t 0 -s 0 -S DLABEL -l "TCP_Traffic" -L ""
n -t 0 -s 1 -S DLABEL -l "UDP_Traffic" -L ""
+ -t 0.3 -s 1 -d 2 -p cbr -e 1000 -c 2 -i 0 -a 2 -x {1.0 6.0 0 ------- null}
- -t 0.3 -s 1 -d 2 -p cbr -e 1000 -c 2 -i 0 -a 2 -x {1.0 6.0 0 ------- null}
h -t 0.3 -s 1 -d 2 -p cbr -e 1000 -c 2 -i 0 -a 2 -x {1.0 6.0 -1 ------- null}
+ -t 0.317857142857143 -s 1 -d 2 -p cbr -e 1000 -c 2 -i 1 -a 2 -x {1.0 6.0 1 ------- null}
- -t 0.317857142857143 -s 1 -d 2 -p cbr -e 1000 -c 2 -i 1 -a 2 -x {1.0 6.0 1 ------- null}
h -t 0.317857142857143 -s 1 -d 2 -p cbr -e 1000 -c 2 -i 1 -a 2 -x {1.0 6.0 -1 ------- null}
r -t 0.318 -s 1 -d 2 -p cbr -e 1000 -c 2 -i 0 -a 2 -x {1.0 6.0 0 ------- null}
+ -t 0.318 -s 2 -d 3 -p cbr -e 1000 -c 2 -i 0 -a 2 -x {1.0 6.0 0 ------- null}
- -t 0.318 -s 2 -d 3 -p cbr -e 1000 -c 2 -i 0 -a 2 -x {1.0 6.0 0 ------- null}
h -t 0.318 -s 2 -d 3 -p cbr -e 1000 -c 2 -i 0 -a 2 -x {1.0 6.0 -1 ------- null}
+ -t 0.335714285714286 -s 1 -d 2 -p cbr -e 1000 -c 2 -i 2 -a 2 -x {1.0 6.0 2 ------- null}
- -t 0.335714285714286 -s 1 -d 2 -p cbr -e 1000 -c 2 -i 2 -a 2 -x {1.0 6.0 2 ------- null}
h -t 0.335714285714286 -s 1 -d 2 -p cbr -e 1000 -c 2 -i 2 -a 2 -x {1.0 6.0 -1 ------- null}
r -t 0.335857142857143 -s 1 -d 2 -p cbr -e 1000 -c 2 -i 1 -a 2 -x {1.0 6.0 1 ------- null}
+ -t 0.335857142857143 -s 2 -d 3 -p cbr -e 1000 -c 2 -i 1 -a 2 -x {1.0 6.0 1 ------- null}
- -t 0.344666666666667 -s 2 -d 3 -p cbr -e 1000 -c 2 -i 1 -a 2 -x {1.0 6.0 1 ------- null}
h -t 0.344666666666667 -s 2 -d 3 -p cbr -e 1000 -c 2 -i 1 -a 2 -x {1.0 6.0 -1 ------- null}
+ -t 0.353571428571429 -s 1 -d 2 -p cbr -e 1000 -c 2 -i 3 -a 2 -x {1.0 6.0 3 ------- null}
- -t 0.353571428571429 -s 1 -d 2 -p cbr -e 1000 -c 2 -i 3 -a 2 -x {1.0 6.0 3 ------- null}
h -t 0.353571428571429 -s 1 -d 2 -p cbr -e 1000 -c 2 -i 3 -a 2 -x {1.0 6.0 -1 ------- null}
r -t 0.353714285714286 -s 1 -d 2 -p cbr -e 1000 -c 2 -i 2 -a 2 -x {1.0 6.0 2 ------- null}
+ -t 0.353714285714286 -s 2 -d 3 -p cbr -e 1000 -c 2 -i 2 -a 2 -x {1.0 6.0 2 ------- null}
- -t 0.371333333333333 -s 2 -d 3 -p cbr -e 1000 -c 2 -i 2 -a 2 -x {1.0 6.0 2 ------- null}
h -t 0.371333333333333 -s 2 -d 3 -p cbr -e 1000 -c 2 -i 2 -a 2 -x {1.0 6.0 -1 ------- null}
+ -t 0.371428571428571 -s 1 -d 2 -p cbr -e 1000 -c 2 -i 4 -a 2 -x {1.0 6.0 4 ------- null}
- -t 0.371428571428571 -s 1 -d 2 -p cbr -e 1000 -c 2 -i 4 -a 2 -x {1.0 6.0 4 ------- null}
h -t 0.371428571428571 -s 1 -d 2 -p cbr -e 1000 -c 2 -i 4 -a 2 -x {1.0 6.0 -1 ------- null}
r -t 0.371571428571429 -s 1 -d 2 -p cbr -e 1000 -c 2 -i 3 -a 2 -x {1.0 6.0 3 ------- null}
+ -t 0.371571428571429 -s 2 -d 3 -p cbr -e 1000 -c 2 -i 3 -a 2 -x {1.0 6.0 3 ------- null}
+ -t 0.389285714285714 -s 1 -d 2 -p cbr -e 1000 -c 2 -i 5 -a 2 -x {1.0 6.0 5 ------- null}
- -t 0.389285714285714 -s 1 -d 2 -p cbr -e 1000 -c 2 -i 5 -a 2 -x {1.0 6.0 5 ------- null}
h -t 0.389285714285714 -s 1 -d 2 -p cbr -e 1000 -c 2 -i 5 -a 2 -x {1.0 6.0 -1 ------- null}
r -t 0.389428571428571 -s 1 -d 2 -p cbr -e 1000 -c 2 -i 4 -a 2 -x {1.0 6.0 4 ------- null}
+ -t 0.389428571428571 -s 2 -d 3 -p cbr -e 1000 -c 2 -i 4 -a 2 -x {1.0 6.0 4 ------- null}
- -t 0.398 -s 2 -d 3 -p cbr -e 1000 -c 2 -i 3 -a 2 -x {1.0 6.0 3 ------- null}
h -t 0.398 -s 2 -d 3 -p cbr -e 1000 -c 2 -i 3 -a 2 -x {1.0 6.0 -1 ------- null}
+ -t 0.407142857142857 -s 1 -d 2 -p cbr -e 1000 -c 2 -i 6 -a 2 -x {1.0 6.0 6 ------- null}
- -t 0.407142857142857 -s 1 -d 2 -p cbr -e 1000 -c 2 -i 6 -a 2 -x {1.0 6.0 6 ------- null}
h -t 0.407142857142857 -s 1 -d 2 -p cbr -e 1000 -c 2 -i 6 -a 2 -x {1.0 6.0 -1 ------- null}
r -t 0.407285714285714 -s 1 -d 2 -p cbr -e 1000 -c 2 -i 5 -a 2 -x {1.0 6.0 5 ------- null}
+ -t 0.407285714285714 -s 2 -d 3 -p cbr -e 1000 -c 2 -i 5 -a 2 -x {1.0 6.0 5 ------- null}
- -t 0.424666666666667 -s 2 -d 3 -p cbr -e 1000 -c 2 -i 4 -a 2 -x {1.0 6.0 4 ------- null}
h -t 0.424666666666667 -s 2 -d 3 -p cbr -e 1000 -c 2 -i 4 -a 2 -x {1.0 6.0 -1 ------- null}
+ -t 0.425 -s 1 -d 2 -p cbr -e 1000 -c 2 -i 7 -a 2 -x {1.0 6.0 7 ------- null}
- -t 0.425 -s 1 -d 2 -p cbr -e 1000 -c 2 -i 7 -a 2 -x {1.0 6.0 7 ------- null}
h -t 0.425 -s 1 -d 2 -p cbr -e 1000 -c 2 -i 7 -a 2 -x {1.0 6.0 -1 ------- null}
r -t 0.425142857142857 -s 1 -d 2 -p cbr -e 1000 -c 2 -i 6 -a 2 -x {1.0 6.0 6 ------- null}
+ -t 0.425142857142857 -s 2 -d 3 -p cbr -e 1000 -c 2 -i 6 -a 2 -x {1.0 6.0 6 ------- null}
+ -t 0.442857142857143 -s 1 -d 2 -p cbr -e 1000 -c 2 -i 8 -a 2 -x {1.0 6.0 8 ------- null}
- -t 0.442857142857143 -s 1 -d 2 -p cbr -e 1000 -c 2 -i 8 -a 2 -x {1.0 6.0 8 ------- null}
h -t 0.442857142857143 -s 1 -d 2 -p cbr -e 1000 -c 2 -i 8 -a 2 -x {1.0 6.0 -1 ------- null}
r -t 0.443 -s 1 -d 2 -p cbr -e 1000 -c 2 -i 7 -a 2 -x {1.0 6.0 7 ------- null}
+ -t 0.443 -s 2 -d 3 -p cbr -e 1000 -c 2 -i 7 -a 2 -x {1.0 6.0 7 ------- null}
r -t 0.444666666666667 -s 2 -d 3 -p cbr -e 1000 -c 2 -i 0 -a 2 -x {1.0 6.0 0 ------- null}
h -t 0.444666666666667 -s 3 -d 7 -p cbr -e 1000 -c 2 -i 0 -a 2 -x {1.0 6.0 0 ------- null}
- -t 0.451333333333333 -s 2 -d 3 -p cbr -e 1000 -c 2 -i 5 -a 2 -x {1.0 6.0 5 ------- null}
h -t 0.451333333333333 -s 2 -d 3 -p cbr -e 1000 -c 2 -i 5 -a 2 -x {1.0 6.0 -1 ------- null}
+ -t 0.460714285714286 -s 1 -d 2 -p cbr -e 1000 -c 2 -i 9 -a 2 -x {1.0 6.0 9 ------- null}
- -t 0.460714285714286 -s 1 -d 2 -p cbr -e 1000 -c 2 -i 9 -a 2 -x {1.0 6.0 9 ------- null}
h -t 0.460714285714286 -s 1 -d 2 -p cbr -e 1000 -c 2 -i 9 -a 2 -x {1.0 6.0 -1 ------- null}
r -t 0.460857142857143 -s 1 -d 2 -p cbr -e 1000 -c 2 -i 8 -a 2 -x {1.0 6.0 8 ------- null}
+ -t 0.460857142857143 -s 2 -d 3 -p cbr -e 1000 -c 2 -i 8 -a 2 -x {1.0 6.0 8 ------- null}
r -t 0.471333333333333 -s 2 -d 3 -p cbr -e 1000 -c 2 -i 1 -a 2 -x {1.0 6.0 1 ------- null}
h -t 0.471333333333333 -s 3 -d 7 -p cbr -e 1000 -c 2 -i 1 -a 2 -x {1.0 6.0 1 ------- null}
- -t 0.478 -s 2 -d 3 -p cbr -e 1000 -c 2 -i 6 -a 2 -x {1.0 6.0 6 ------- null}
h -t 0.478 -s 2 -d 3 -p cbr -e 1000 -c 2 -i 6 -a 2 -x {1.0 6.0 -1 ------- null}
+ -t 0.478571428571428 -s 1 -d 2 -p cbr -e 1000 -c 2 -i 10 -a 2 -x {1.0 6.0 10 ------- null}
- -t 0.478571428571428 -s 1 -d 2 -p cbr -e 1000 -c 2 -i 10 -a 2 -x {1.0 6.0 10 ------- null}
h -t 0.478571428571428 -s 1 -d 2 -p cbr -e 1000 -c 2 -i 10 -a 2 -x {1.0 6.0 -1 ------- null}
r -t 0.478714285714286 -s 1 -d 2 -p cbr -e 1000 -c 2 -i 9 -a 2 -x {1.0 6.0 9 ------- null}
+ -t 0.478714285714286 -s 2 -d 3 -p cbr -e 1000 -c 2 -i 9 -a 2 -x {1.0 6.0 9 ------- null}
+ -t 0.484666666666667 -s 3 -d 7 -p cbr -e 1000 -c 2 -i 0 -a 2 -x {1.0 6.0 0 ------- null}
- -t 0.484666666666667 -s 3 -d 7 -p cbr -e 1000 -c 2 -i 0 -a 2 -x {1.0 6.0 0 ------- null}
h -t 0.484666666666667 -s 3 -d 7 -p cbr -e 1000 -c 2 -i 0 -a 2 -x {1.0 6.0 -1 ------- null}
d -t 0.484670666666667 -s 5 -d 7 -p cbr -e 1000 -c 2 -i 0 -a 2 -x {1.0 6.0 0 ------- null}
d -t 0.484670666666667 -s 4 -d 7 -p cbr -e 1000 -c 2 -i 0 -a 2 -x {1.0 6.0 0 ------- null}
+ -t 0.496428571428571 -s 1 -d 2 -p cbr -e 1000 -c 2 -i 11 -a 2 -x {1.0 6.0 11 ------- null}
- -t 0.496428571428571 -s 1 -d 2 -p cbr -e 1000 -c 2 -i 11 -a 2 -x {1.0 6.0 11 ------- null}
h -t 0.496428571428571 -s 1 -d 2 -p cbr -e 1000 -c 2 -i 11 -a 2 -x {1.0 6.0 -1 ------- null}
r -t 0.496571428571428 -s 1 -d 2 -p cbr -e 1000 -c 2 -i 10 -a 2 -x {1.0 6.0 10 ------- null}
+ -t 0.496571428571428 -s 2 -d 3 -p cbr -e 1000 -c 2 -i 10 -a 2 -x {1.0 6.0 10 ------- null}
r -t 0.498 -s 2 -d 3 -p cbr -e 1000 -c 2 -i 2 -a 2 -x {1.0 6.0 2 ------- null}
h -t 0.498 -s 3 -d 7 -p cbr -e 1000 -c 2 -i 2 -a 2 -x {1.0 6.0 2 ------- null}
- -t 0.504666666666667 -s 2 -d 3 -p cbr -e 1000 -c 2 -i 7 -a 2 -x {1.0 6.0 7 ------- null}
h -t 0.504666666666667 -s 2 -d 3 -p cbr -e 1000 -c 2 -i 7 -a 2 -x {1.0 6.0 -1 ------- null}
+ -t 0.511333333333333 -s 3 -d 7 -p cbr -e 1000 -c 2 -i 1 -a 2 -x {1.0 6.0 1 ------- null}
- -t 0.511333333333333 -s 3 -d 7 -p cbr -e 1000 -c 2 -i 1 -a 2 -x {1.0 6.0 1 ------- null}
h -t 0.511333333333333 -s 3 -d 7 -p cbr -e 1000 -c 2 -i 1 -a 2 -x {1.0 6.0 -1 ------- null}
d -t 0.511337333333333 -s 5 -d 7 -p cbr -e 1000 -c 2 -i 1 -a 2 -x {1.0 6.0 1 ------- null}
d -t 0.511337333333333 -s 4 -d 7 -p cbr -e 1000 -c 2 -i 1 -a 2 -x {1.0 6.0 1 ------- null}
+ -t 0.514285714285714 -s 1 -d 2 -p cbr -e 1000 -c 2 -i 12 -a 2 -x {1.0 6.0 12 ------- null}
- -t 0.514285714285714 -s 1 -d 2 -p cbr -e 1000 -c 2 -i 12 -a 2 -x {1.0 6.0 12 ------- null}
h -t 0.514285714285714 -s 1 -d 2 -p cbr -e 1000 -c 2 -i 12 -a 2 -x {1.0 6.0 -1 ------- null}
r -t 0.514428571428571 -s 1 -d 2 -p cbr -e 1000 -c 2 -i 11 -a 2 -x {1.0 6.0 11 ------- null}
+ -t 0.514428571428571 -s 2 -d 3 -p cbr -e 1000 -c 2 -i 11 -a 2 -x {1.0 6.0 11 ------- null}
r -t 0.524666666666667 -s 2 -d 3 -p cbr -e 1000 -c 2 -i 3 -a 2 -x {1.0 6.0 3 ------- null}
h -t 0.524666666666667 -s 3 -d 7 -p cbr -e 1000 -c 2 -i 3 -a 2 -x {1.0 6.0 3 ------- null}
r -t 0.524670666666667 -s 7 -d 6 -p cbr -e 1000 -c 2 -i 0 -a 2 -x {1.0 6.0 0 ------- null}
- -t 0.531333333333333 -s 2 -d 3 -p cbr -e 1000 -c 2 -i 8 -a 2 -x {1.0 6.0 8 ------- null}
h -t 0.531333333333333 -s 2 -d 3 -p cbr -e 1000 -c 2 -i 8 -a 2 -x {1.0 6.0 -1 ------- null}
+ -t 0.532142857142857 -s 1 -d 2 -p cbr -e 1000 -c 2 -i 13 -a 2 -x {1.0 6.0 13 ------- null}
- -t 0.532142857142857 -s 1 -d 2 -p cbr -e 1000 -c 2 -i 13 -a 2 -x {1.0 6.0 13 ------- null}
h -t 0.532142857142857 -s 1 -d 2 -p cbr -e 1000 -c 2 -i 13 -a 2 -x {1.0 6.0 -1 ------- null}
r -t 0.532285714285714 -s 1 -d 2 -p cbr -e 1000 -c 2 -i 12 -a 2 -x {1.0 6.0 12 ------- null}
+ -t 0.532285714285714 -s 2 -d 3 -p cbr -e 1000 -c 2 -i 12 -a 2 -x {1.0 6.0 12 ------- null}
+ -t 0.538 -s 3 -d 7 -p cbr -e 1000 -c 2 -i 2 -a 2 -x {1.0 6.0 2 ------- null}
- -t 0.538 -s 3 -d 7 -p cbr -e 1000 -c 2 -i 2 -a 2 -x {1.0 6.0 2 ------- null}
h -t 0.538 -s 3 -d 7 -p cbr -e 1000 -c 2 -i 2 -a 2 -x {1.0 6.0 -1 ------- null}
d -t 0.538004 -s 5 -d 7 -p cbr -e 1000 -c 2 -i 2 -a 2 -x {1.0 6.0 2 ------- null}
d -t 0.538004 -s 4 -d 7 -p cbr -e 1000 -c 2 -i 2 -a 2 -x {1.0 6.0 2 ------- null}
+ -t 0.55 -s 1 -d 2 -p cbr -e 1000 -c 2 -i 14 -a 2 -x {1.0 6.0 14 ------- null}
- -t 0.55 -s 1 -d 2 -p cbr -e 1000 -c 2 -i 14 -a 2 -x {1.0 6.0 14 ------- null}
h -t 0.55 -s 1 -d 2 -p cbr -e 1000 -c 2 -i 14 -a 2 -x {1.0 6.0 -1 ------- null}
r -t 0.550142857142857 -s 1 -d 2 -p cbr -e 1000 -c 2 -i 13 -a 2 -x {1.0 6.0 13 ------- null}
+ -t 0.550142857142857 -s 2 -d 3 -p cbr -e 1000 -c 2 -i 13 -a 2 -x {1.0 6.0 13 ------- null}
r -t 0.551333333333333 -s 2 -d 3 -p cbr -e 1000 -c 2 -i 4 -a 2 -x {1.0 6.0 4 ------- null}
h -t 0.551333333333333 -s 3 -d 7 -p cbr -e 1000 -c 2 -i 4 -a 2 -x {1.0 6.0 4 ------- null}
r -t 0.551337333333333 -s 7 -d 6 -p cbr -e 1000 -c 2 -i 1 -a 2 -x {1.0 6.0 1 ------- null}
- -t 0.558 -s 2 -d 3 -p cbr -e 1000 -c 2 -i 9 -a 2 -x {1.0 6.0 9 ------- null}
h -t 0.558 -s 2 -d 3 -p cbr -e 1000 -c 2 -i 9 -a 2 -x {1.0 6.0 -1 ------- null}
+ -t 0.564666666666667 -s 3 -d 7 -p cbr -e 1000 -c 2 -i 3 -a 2 -x {1.0 6.0 3 ------- null}
- -t 0.564666666666667 -s 3 -d 7 -p cbr -e 1000 -c 2 -i 3 -a 2 -x {1.0 6.0 3 ------- null}
h -t 0.564666666666667 -s 3 -d 7 -p cbr -e 1000 -c 2 -i 3 -a 2 -x {1.0 6.0 -1 ------- null}
d -t 0.564670666666667 -s 5 -d 7 -p cbr -e 1000 -c 2 -i 3 -a 2 -x {1.0 6.0 3 ------- null}
d -t 0.564670666666667 -s 4 -d 7 -p cbr -e 1000 -c 2 -i 3 -a 2 -x {1.0 6.0 3 ------- null}
+ -t 0.567857142857143 -s 1 -d 2 -p cbr -e 1000 -c 2 -i 15 -a 2 -x {1.0 6.0 15 ------- null}
- -t 0.567857142857143 -s 1 -d 2 -p cbr -e 1000 -c 2 -i 15 -a 2 -x {1.0 6.0 15 ------- null}
h -t 0.567857142857143 -s 1 -d 2 -p cbr -e 1000 -c 2 -i 15 -a 2 -x {1.0 6.0 -1 ------- null}
r -t 0.568 -s 1 -d 2 -p cbr -e 1000 -c 2 -i 14 -a 2 -x {1.0 6.0 14 ------- null}
+ -t 0.568 -s 2 -d 3 -p cbr -e 1000 -c 2 -i 14 -a 2 -x {1.0 6.0 14 ------- null}
r -t 0.578 -s 2 -d 3 -p cbr -e 1000 -c 2 -i 5 -a 2 -x {1.0 6.0 5 ------- null}
h -t 0.578 -s 3 -d 7 -p cbr -e 1000 -c 2 -i 5 -a 2 -x {1.0 6.0 5 ------- null}
r -t 0.578004 -s 7 -d 6 -p cbr -e 1000 -c 2 -i 2 -a 2 -x {1.0 6.0 2 ------- null}
- -t 0.584666666666667 -s 2 -d 3 -p cbr -e 1000 -c 2 -i 10 -a 2 -x {1.0 6.0 10 ------- null}
h -t 0.584666666666667 -s 2 -d 3 -p cbr -e 1000 -c 2 -i 10 -a 2 -x {1.0 6.0 -1 ------- null}
+ -t 0.585714285714286 -s 1 -d 2 -p cbr -e 1000 -c 2 -i 16 -a 2 -x {1.0 6.0 16 ------- null}
- -t 0.585714285714286 -s 1 -d 2 -p cbr -e 1000 -c 2 -i 16 -a 2 -x {1.0 6.0 16 ------- null}
h -t 0.585714285714286 -s 1 -d 2 -p cbr -e 1000 -c 2 -i 16 -a 2 -x {1.0 6.0 -1 ------- null}
r -t 0.585857142857143 -s 1 -d 2 -p cbr -e 1000 -c 2 -i 15 -a 2 -x {1.0 6.0 15 ------- null}
+ -t 0.585857142857143 -s 2 -d 3 -p cbr -e 1000 -c 2 -i 15 -a 2 -x {1.0 6.0 15 ------- null}
+ -t 0.591333333333333 -s 3 -d 7 -p cbr -e 1000 -c 2 -i 4 -a 2 -x {1.0 6.0 4 ------- null}
- -t 0.591333333333333 -s 3 -d 7 -p cbr -e 1000 -c 2 -i 4 -a 2 -x {1.0 6.0 4 ------- null}
h -t 0.591333333333333 -s 3 -d 7 -p cbr -e 1000 -c 2 -i 4 -a 2 -x {1.0 6.0 -1 ------- null}
d -t 0.591337333333333 -s 5 -d 7 -p cbr -e 1000 -c 2 -i 4 -a 2 -x {1.0 6.0 4 ------- null}
d -t 0.591337333333333 -s 4 -d 7 -p cbr -e 1000 -c 2 -i 4 -a 2 -x {1.0 6.0 4 ------- null}
+ -t 0.603571428571429 -s 1 -d 2 -p cbr -e 1000 -c 2 -i 17 -a 2 -x {1.0 6.0 17 ------- null}
- -t 0.603571428571429 -s 1 -d 2 -p cbr -e 1000 -c 2 -i 17 -a 2 -x {1.0 6.0 17 ------- null}
h -t 0.603571428571429 -s 1 -d 2 -p cbr -e 1000 -c 2 -i 17 -a 2 -x {1.0 6.0 -1 ------- null}
r -t 0.603714285714286 -s 1 -d 2 -p cbr -e 1000 -c 2 -i 16 -a 2 -x {1.0 6.0 16 ------- null}
+ -t 0.603714285714286 -s 2 -d 3 -p cbr -e 1000 -c 2 -i 16 -a 2 -x {1.0 6.0 16 ------- null}
r -t 0.604666666666667 -s 2 -d 3 -p cbr -e 1000 -c 2 -i 6 -a 2 -x {1.0 6.0 6 ------- null}
h -t 0.604666666666667 -s 3 -d 7 -p cbr -e 1000 -c 2 -i 6 -a 2 -x {1.0 6.0 6 ------- null}
r -t 0.604670666666667 -s 7 -d 6 -p cbr -e 1000 -c 2 -i 3 -a 2 -x {1.0 6.0 3 ------- null}
- -t 0.611333333333333 -s 2 -d 3 -p cbr -e 1000 -c 2 -i 11 -a 2 -x {1.0 6.0 11 ------- null}
h -t 0.611333333333333 -s 2 -d 3 -p cbr -e 1000 -c 2 -i 11 -a 2 -x {1.0 6.0 -1 ------- null}
+ -t 0.618 -s 3 -d 7 -p cbr -e 1000 -c 2 -i 5 -a 2 -x {1.0 6.0 5 ------- null}
- -t 0.618 -s 3 -d 7 -p cbr -e 1000 -c 2 -i 5 -a 2 -x {1.0 6.0 5 ------- null}
h -t 0.618 -s 3 -d 7 -p cbr -e 1000 -c 2 -i 5 -a 2 -x {1.0 6.0 -1 ------- null}
d -t 0.618004 -s 5 -d 7 -p cbr -e 1000 -c 2 -i 5 -a 2 -x {1.0 6.0 5 ------- null}
d -t 0.618004 -s 4 -d 7 -p cbr -e 1000 -c 2 -i 5 -a 2 -x {1.0 6.0 5 ------- null}
+ -t 0.621428571428572 -s 1 -d 2 -p cbr -e 1000 -c 2 -i 18 -a 2 -x {1.0 6.0 18 ------- null}
- -t 0.621428571428572 -s 1 -d 2 -p cbr -e 1000 -c 2 -i 18 -a 2 -x {1.0 6.0 18 ------- null}
h -t 0.621428571428572 -s 1 -d 2 -p cbr -e 1000 -c 2 -i 18 -a 2 -x {1.0 6.0 -1 ------- null}
r -t 0.621571428571429 -s 1 -d 2 -p cbr -e 1000 -c 2 -i 17 -a 2 -x {1.0 6.0 17 ------- null}
+ -t 0.621571428571429 -s 2 -d 3 -p cbr -e 1000 -c 2 -i 17 -a 2 -x {1.0 6.0 17 ------- null}
r -t 0.631333333333333 -s 2 -d 3 -p cbr -e 1000 -c 2 -i 7 -a 2 -x {1.0 6.0 7 ------- null}
h -t 0.631333333333333 -s 3 -d 7 -p cbr -e 1000 -c 2 -i 7 -a 2 -x {1.0 6.0 7 ------- null}
r -t 0.631337333333333 -s 7 -d 6 -p cbr -e 1000 -c 2 -i 4 -a 2 -x {1.0 6.0 4 ------- null}
- -t 0.638 -s 2 -d 3 -p cbr -e 1000 -c 2 -i 12 -a 2 -x {1.0 6.0 12 ------- null}
h -t 0.638 -s 2 -d 3 -p cbr -e 1000 -c 2 -i 12 -a 2 -x {1.0 6.0 -1 ------- null}
+ -t 0.639285714285715 -s 1 -d 2 -p cbr -e 1000 -c 2 -i 19 -a 2 -x {1.0 6.0 19 ------- null}
- -t 0.639285714285715 -s 1 -d 2 -p cbr -e 1000 -c 2 -i 19 -a 2 -x {1.0 6.0 19 ------- null}
h -t 0.639285714285715 -s 1 -d 2 -p cbr -e 1000 -c 2 -i 19 -a 2 -x {1.0 6.0 -1 ------- null}
r -t 0.639428571428572 -s 1 -d 2 -p cbr -e 1000 -c 2 -i 18 -a 2 -x {1.0 6.0 18 ------- null}
+ -t 0.639428571428572 -s 2 -d 3 -p cbr -e 1000 -c 2 -i 18 -a 2 -x {1.0 6.0 18 ------- null}
+ -t 0.644666666666667 -s 3 -d 7 -p cbr -e 1000 -c 2 -i 6 -a 2 -x {1.0 6.0 6 ------- null}
- -t 0.644666666666667 -s 3 -d 7 -p cbr -e 1000 -c 2 -i 6 -a 2 -x {1.0 6.0 6 ------- null}
h -t 0.644666666666667 -s 3 -d 7 -p cbr -e 1000 -c 2 -i 6 -a 2 -x {1.0 6.0 -1 ------- null}
d -t 0.644670666666667 -s 5 -d 7 -p cbr -e 1000 -c 2 -i 6 -a 2 -x {1.0 6.0 6 ------- null}
d -t 0.644670666666667 -s 4 -d 7 -p cbr -e 1000 -c 2 -i 6 -a 2 -x {1.0 6.0 6 ------- null}
+ -t 0.657142857142857 -s 1 -d 2 -p cbr -e 1000 -c 2 -i 20 -a 2 -x {1.0 6.0 20 ------- null}
- -t 0.657142857142857 -s 1 -d 2 -p cbr -e 1000 -c 2 -i 20 -a 2 -x {1.0 6.0 20 ------- null}
h -t 0.657142857142857 -s 1 -d 2 -p cbr -e 1000 -c 2 -i 20 -a 2 -x {1.0 6.0 -1 ------- null}
r -t 0.657285714285715 -s 1 -d 2 -p cbr -e 1000 -c 2 -i 19 -a 2 -x {1.0 6.0 19 ------- null}
+ -t 0.657285714285715 -s 2 -d 3 -p cbr -e 1000 -c 2 -i 19 -a 2 -x {1.0 6.0 19 ------- null}
r -t 0.658 -s 2 -d 3 -p cbr -e 1000 -c 2 -i 8 -a 2 -x {1.0 6.0 8 ------- null}
h -t 0.658 -s 3 -d 7 -p cbr -e 1000 -c 2 -i 8 -a 2 -x {1.0 6.0 8 ------- null}
r -t 0.658004 -s 7 -d 6 -p cbr -e 1000 -c 2 -i 5 -a 2 -x {1.0 6.0 5 ------- null}
- -t 0.664666666666666 -s 2 -d 3 -p cbr -e 1000 -c 2 -i 13 -a 2 -x {1.0 6.0 13 ------- null}
h -t 0.664666666666666 -s 2 -d 3 -p cbr -e 1000 -c 2 -i 13 -a 2 -x {1.0 6.0 -1 ------- null}
+ -t 0.671333333333333 -s 3 -d 7 -p cbr -e 1000 -c 2 -i 7 -a 2 -x {1.0 6.0 7 ------- null}
- -t 0.671333333333333 -s 3 -d 7 -p cbr -e 1000 -c 2 -i 7 -a 2 -x {1.0 6.0 7 ------- null}
h -t 0.671333333333333 -s 3 -d 7 -p cbr -e 1000 -c 2 -i 7 -a 2 -x {1.0 6.0 -1 ------- null}
d -t 0.671337333333333 -s 5 -d 7 -p cbr -e 1000 -c 2 -i 7 -a 2 -x {1.0 6.0 7 ------- null}
d -t 0.671337333333333 -s 4 -d 7 -p cbr -e 1000 -c 2 -i 7 -a 2 -x {1.0 6.0 7 ------- null}
+ -t 0.675 -s 1 -d 2 -p cbr -e 1000 -c 2 -i 21 -a 2 -x {1.0 6.0 21 ------- null}
- -t 0.675 -s 1 -d 2 -p cbr -e 1000 -c 2 -i 21 -a 2 -x {1.0 6.0 21 ------- null}
h -t 0.675 -s 1 -d 2 -p cbr -e 1000 -c 2 -i 21 -a 2 -x {1.0 6.0 -1 ------- null}
r -t 0.675142857142857 -s 1 -d 2 -p cbr -e 1000 -c 2 -i 20 -a 2 -x {1.0 6.0 20 ------- null}
+ -t 0.675142857142857 -s 2 -d 3 -p cbr -e 1000 -c 2 -i 20 -a 2 -x {1.0 6.0 20 ------- null}
r -t 0.684666666666667 -s 2 -d 3 -p cbr -e 1000 -c 2 -i 9 -a 2 -x {1.0 6.0 9 ------- null}
h -t 0.684666666666667 -s 3 -d 7 -p cbr -e 1000 -c 2 -i 9 -a 2 -x {1.0 6.0 9 ------- null}
r -t 0.684670666666667 -s 7 -d 6 -p cbr -e 1000 -c 2 -i 6 -a 2 -x {1.0 6.0 6 ------- null}
- -t 0.691333333333333 -s 2 -d 3 -p cbr -e 1000 -c 2 -i 14 -a 2 -x {1.0 6.0 14 ------- null}
h -t 0.691333333333333 -s 2 -d 3 -p cbr -e 1000 -c 2 -i 14 -a 2 -x {1.0 6.0 -1 ------- null}
+ -t 0.692857142857143 -s 1 -d 2 -p cbr -e 1000 -c 2 -i 22 -a 2 -x {1.0 6.0 22 ------- null}
- -t 0.692857142857143 -s 1 -d 2 -p cbr -e 1000 -c 2 -i 22 -a 2 -x {1.0 6.0 22 ------- null}
h -t 0.692857142857143 -s 1 -d 2 -p cbr -e 1000 -c 2 -i 22 -a 2 -x {1.0 6.0 -1 ------- null}
r -t 0.693 -s 1 -d 2 -p cbr -e 1000 -c 2 -i 21 -a 2 -x {1.0 6.0 21 ------- null}
+ -t 0.693 -s 2 -d 3 -p cbr -e 1000 -c 2 -i 21 -a 2 -x {1.0 6.0 21 ------- null}
+ -t 0.698 -s 3 -d 7 -p cbr -e 1000 -c 2 -i 8 -a 2 -x {1.0 6.0 8 ------- null}
- -t 0.698 -s 3 -d 7 -p cbr -e 1000 -c 2 -i 8 -a 2 -x {1.0 6.0 8 ------- null}
h -t 0.698 -s 3 -d 7 -p cbr -e 1000 -c 2 -i 8 -a 2 -x {1.0 6.0 -1 ------- null}
d -t 0.698004 -s 5 -d 7 -p cbr -e 1000 -c 2 -i 8 -a 2 -x {1.0 6.0 8 ------- null}
d -t 0.698004 -s 4 -d 7 -p cbr -e 1000 -c 2 -i 8 -a 2 -x {1.0 6.0 8 ------- null}
+ -t 0.710714285714286 -s 1 -d 2 -p cbr -e 1000 -c 2 -i 23 -a 2 -x {1.0 6.0 23 ------- null}
- -t 0.710714285714286 -s 1 -d 2 -p cbr -e 1000 -c 2 -i 23 -a 2 -x {1.0 6.0 23 ------- null}
h -t 0.710714285714286 -s 1 -d 2 -p cbr -e 1000 -c 2 -i 23 -a 2 -x {1.0 6.0 -1 ------- null}
r -t 0.710857142857143 -s 1 -d 2 -p cbr -e 1000 -c 2 -i 22 -a 2 -x {1.0 6.0 22 ------- null}
+ -t 0.710857142857143 -s 2 -d 3 -p cbr -e 1000 -c 2 -i 22 -a 2 -x {1.0 6.0 22 ------- null}
r -t 0.711333333333333 -s 2 -d 3 -p cbr -e 1000 -c 2 -i 10 -a 2 -x {1.0 6.0 10 ------- null}
h -t 0.711333333333333 -s 3 -d 7 -p cbr -e 1000 -c 2 -i 10 -a 2 -x {1.0 6.0 10 ------- null}
r -t 0.711337333333333 -s 7 -d 6 -p cbr -e 1000 -c 2 -i 7 -a 2 -x {1.0 6.0 7 ------- null}
- -t 0.718 -s 2 -d 3 -p cbr -e 1000 -c 2 -i 15 -a 2 -x {1.0 6.0 15 ------- null}
h -t 0.718 -s 2 -d 3 -p cbr -e 1000 -c 2 -i 15 -a 2 -x {1.0 6.0 -1 ------- null}
+ -t 0.724666666666667 -s 3 -d 7 -p cbr -e 1000 -c 2 -i 9 -a 2 -x {1.0 6.0 9 ------- null}
- -t 0.724666666666667 -s 3 -d 7 -p cbr -e 1000 -c 2 -i 9 -a 2 -x {1.0 6.0 9 ------- null}
h -t 0.724666666666667 -s 3 -d 7 -p cbr -e 1000 -c 2 -i 9 -a 2 -x {1.0 6.0 -1 ------- null}
d -t 0.724670666666667 -s 5 -d 7 -p cbr -e 1000 -c 2 -i 9 -a 2 -x {1.0 6.0 9 ------- null}
d -t 0.724670666666667 -s 4 -d 7 -p cbr -e 1000 -c 2 -i 9 -a 2 -x {1.0 6.0 9 ------- null}
+ -t 0.728571428571429 -s 1 -d 2 -p cbr -e 1000 -c 2 -i 24 -a 2 -x {1.0 6.0 24 ------- null}
- -t 0.728571428571429 -s 1 -d 2 -p cbr -e 1000 -c 2 -i 24 -a 2 -x {1.0 6.0 24 ------- null}
h -t 0.728571428571429 -s 1 -d 2 -p cbr -e 1000 -c 2 -i 24 -a 2 -x {1.0 6.0 -1 ------- null}
r -t 0.728714285714286 -s 1 -d 2 -p cbr -e 1000 -c 2 -i 23 -a 2 -x {1.0 6.0 23 ------- null}
+ -t 0.728714285714286 -s 2 -d 3 -p cbr -e 1000 -c 2 -i 23 -a 2 -x {1.0 6.0 23 ------- null}
r -t 0.738 -s 2 -d 3 -p cbr -e 1000 -c 2 -i 11 -a 2 -x {1.0 6.0 11 ------- null}
h -t 0.738 -s 3 -d 7 -p cbr -e 1000 -c 2 -i 11 -a 2 -x {1.0 6.0 11 ------- null}
r -t 0.738004 -s 7 -d 6 -p cbr -e 1000 -c 2 -i 8 -a 2 -x {1.0 6.0 8 ------- null}
- -t 0.744666666666666 -s 2 -d 3 -p cbr -e 1000 -c 2 -i 16 -a 2 -x {1.0 6.0 16 ------- null}
h -t 0.744666666666666 -s 2 -d 3 -p cbr -e 1000 -c 2 -i 16 -a 2 -x {1.0 6.0 -1 ------- null}
+ -t 0.746428571428572 -s 1 -d 2 -p cbr -e 1000 -c 2 -i 25 -a 2 -x {1.0 6.0 25 ------- null}
- -t 0.746428571428572 -s 1 -d 2 -p cbr -e 1000 -c 2 -i 25 -a 2 -x {1.0 6.0 25 ------- null}
h -t 0.746428571428572 -s 1 -d 2 -p cbr -e 1000 -c 2 -i 25 -a 2 -x {1.0 6.0 -1 ------- null}
r -t 0.746571428571429 -s 1 -d 2 -p cbr -e 1000 -c 2 -i 24 -a 2 -x {1.0 6.0 24 ------- null}
+ -t 0.746571428571429 -s 2 -d 3 -p cbr -e 1000 -c 2 -i 24 -a 2 -x {1.0 6.0 24 ------- null}
+ -t 0.751333333333333 -s 3 -d 7 -p cbr -e 1000 -c 2 -i 10 -a 2 -x {1.0 6.0 10 ------- null}
- -t 0.751333333333333 -s 3 -d 7 -p cbr -e 1000 -c 2 -i 10 -a 2 -x {1.0 6.0 10 ------- null}
h -t 0.751333333333333 -s 3 -d 7 -p cbr -e 1000 -c 2 -i 10 -a 2 -x {1.0 6.0 -1 ------- null}
d -t 0.751337333333333 -s 5 -d 7 -p cbr -e 1000 -c 2 -i 10 -a 2 -x {1.0 6.0 10 ------- null}
d -t 0.751337333333333 -s 4 -d 7 -p cbr -e 1000 -c 2 -i 10 -a 2 -x {1.0 6.0 10 ------- null}
+ -t 0.764285714285715 -s 1 -d 2 -p cbr -e 1000 -c 2 -i 26 -a 2 -x {1.0 6.0 26 ------- null}
- -t 0.764285714285715 -s 1 -d 2 -p cbr -e 1000 -c 2 -i 26 -a 2 -x {1.0 6.0 26 ------- null}
h -t 0.764285714285715 -s 1 -d 2 -p cbr -e 1000 -c 2 -i 26 -a 2 -x {1.0 6.0 -1 ------- null}
r -t 0.764428571428572 -s 1 -d 2 -p cbr -e 1000 -c 2 -i 25 -a 2 -x {1.0 6.0 25 ------- null}
+ -t 0.764428571428572 -s 2 -d 3 -p cbr -e 1000 -c 2 -i 25 -a 2 -x {1.0 6.0 25 ------- null}
r -t 0.764666666666666 -s 2 -d 3 -p cbr -e 1000 -c 2 -i 12 -a 2 -x {1.0 6.0 12 ------- null}
h -t 0.764666666666666 -s 3 -d 7 -p cbr -e 1000 -c 2 -i 12 -a 2 -x {1.0 6.0 12 ------- null}
r -t 0.764670666666667 -s 7 -d 6 -p cbr -e 1000 -c 2 -i 9 -a 2 -x {1.0 6.0 9 ------- null}
- -t 0.771333333333333 -s 2 -d 3 -p cbr -e 1000 -c 2 -i 17 -a 2 -x {1.0 6.0 17 ------- null}
h -t 0.771333333333333 -s 2 -d 3 -p cbr -e 1000 -c 2 -i 17 -a 2 -x {1.0 6.0 -1 ------- null}
+ -t 0.778 -s 3 -d 7 -p cbr -e 1000 -c 2 -i 11 -a 2 -x {1.0 6.0 11 ------- null}
- -t 0.778 -s 3 -d 7 -p cbr -e 1000 -c 2 -i 11 -a 2 -x {1.0 6.0 11 ------- null}
h -t 0.778 -s 3 -d 7 -p cbr -e 1000 -c 2 -i 11 -a 2 -x {1.0 6.0 -1 ------- null}
d -t 0.778004 -s 5 -d 7 -p cbr -e 1000 -c 2 -i 11 -a 2 -x {1.0 6.0 11 ------- null}
d -t 0.778004 -s 4 -d 7 -p cbr -e 1000 -c 2 -i 11 -a 2 -x {1.0 6.0 11 ------- null}
+ -t 0.782142857142858 -s 1 -d 2 -p cbr -e 1000 -c 2 -i 27 -a 2 -x {1.0 6.0 27 ------- null}
- -t 0.782142857142858 -s 1 -d 2 -p cbr -e 1000 -c 2 -i 27 -a 2 -x {1.0 6.0 27 ------- null}
h -t 0.782142857142858 -s 1 -d 2 -p cbr -e 1000 -c 2 -i 27 -a 2 -x {1.0 6.0 -1 ------- null}
r -t 0.782285714285715 -s 1 -d 2 -p cbr -e 1000 -c 2 -i 26 -a 2 -x {1.0 6.0 26 ------- null}
+ -t 0.782285714285715 -s 2 -d 3 -p cbr -e 1000 -c 2 -i 26 -a 2 -x {1.0 6.0 26 ------- null}
r -t 0.791333333333333 -s 2 -d 3 -p cbr -e 1000 -c 2 -i 13 -a 2 -x {1.0 6.0 13 ------- null}
h -t 0.791333333333333 -s 3 -d 7 -p cbr -e 1000 -c 2 -i 13 -a 2 -x {1.0 6.0 13 ------- null}
r -t 0.791337333333333 -s 7 -d 6 -p cbr -e 1000 -c 2 -i 10 -a 2 -x {1.0 6.0 10 ------- null}
- -t 0.797999999999999 -s 2 -d 3 -p cbr -e 1000 -c 2 -i 18 -a 2 -x {1.0 6.0 18 ------- null}
h -t 0.797999999999999 -s 2 -d 3 -p cbr -e 1000 -c 2 -i 18 -a 2 -x {1.0 6.0 -1 ------- null}
+ -t 0.8 -s 0 -d 2 -p tcp -e 40 -c 1 -i 28 -a 1 -x {0.0 4.0 0 ------- null}
- -t 0.8 -s 0 -d 2 -p tcp -e 40 -c 1 -i 28 -a 1 -x {0.0 4.0 0 ------- null}
h -t 0.8 -s 0 -d 2 -p tcp -e 40 -c 1 -i 28 -a 1 -x {0.0 4.0 -1 ------- null}
+ -t 0.800000000000001 -s 1 -d 2 -p cbr -e 1000 -c 2 -i 29 -a 2 -x {1.0 6.0 28 ------- null}
- -t 0.800000000000001 -s 1 -d 2 -p cbr -e 1000 -c 2 -i 29 -a 2 -x {1.0 6.0 28 ------- null}
h -t 0.800000000000001 -s 1 -d 2 -p cbr -e 1000 -c 2 -i 29 -a 2 -x {1.0 6.0 -1 ------- null}
r -t 0.800142857142858 -s 1 -d 2 -p cbr -e 1000 -c 2 -i 27 -a 2 -x {1.0 6.0 27 ------- null}
+ -t 0.800142857142858 -s 2 -d 3 -p cbr -e 1000 -c 2 -i 27 -a 2 -x {1.0 6.0 27 ------- null}
+ -t 0.804666666666667 -s 3 -d 7 -p cbr -e 1000 -c 2 -i 12 -a 2 -x {1.0 6.0 12 ------- null}
- -t 0.804666666666667 -s 3 -d 7 -p cbr -e 1000 -c 2 -i 12 -a 2 -x {1.0 6.0 12 ------- null}
h -t 0.804666666666667 -s 3 -d 7 -p cbr -e 1000 -c 2 -i 12 -a 2 -x {1.0 6.0 -1 ------- null}
d -t 0.804670666666667 -s 5 -d 7 -p cbr -e 1000 -c 2 -i 12 -a 2 -x {1.0 6.0 12 ------- null}
d -t 0.804670666666667 -s 4 -d 7 -p cbr -e 1000 -c 2 -i 12 -a 2 -x {1.0 6.0 12 ------- null}
r -t 0.81032 -s 0 -d 2 -p tcp -e 40 -c 1 -i 28 -a 1 -x {0.0 4.0 0 ------- null}
+ -t 0.81032 -s 2 -d 3 -p tcp -e 40 -c 1 -i 28 -a 1 -x {0.0 4.0 0 ------- null}
+ -t 0.817857142857144 -s 1 -d 2 -p cbr -e 1000 -c 2 -i 30 -a 2 -x {1.0 6.0 29 ------- null}
- -t 0.817857142857144 -s 1 -d 2 -p cbr -e 1000 -c 2 -i 30 -a 2 -x {1.0 6.0 29 ------- null}
h -t 0.817857142857144 -s 1 -d 2 -p cbr -e 1000 -c 2 -i 30 -a 2 -x {1.0 6.0 -1 ------- null}
r -t 0.818 -s 2 -d 3 -p cbr -e 1000 -c 2 -i 14 -a 2 -x {1.0 6.0 14 ------- null}
h -t 0.818 -s 3 -d 7 -p cbr -e 1000 -c 2 -i 14 -a 2 -x {1.0 6.0 14 ------- null}
r -t 0.818000000000001 -s 1 -d 2 -p cbr -e 1000 -c 2 -i 29 -a 2 -x {1.0 6.0 28 ------- null}
+ -t 0.818000000000001 -s 2 -d 3 -p cbr -e 1000 -c 2 -i 29 -a 2 -x {1.0 6.0 28 ------- null}
r -t 0.818004 -s 7 -d 6 -p cbr -e 1000 -c 2 -i 11 -a 2 -x {1.0 6.0 11 ------- null}
- -t 0.824666666666666 -s 2 -d 3 -p cbr -e 1000 -c 2 -i 19 -a 2 -x {1.0 6.0 19 ------- null}
h -t 0.824666666666666 -s 2 -d 3 -p cbr -e 1000 -c 2 -i 19 -a 2 -x {1.0 6.0 -1 ------- null}
+ -t 0.831333333333333 -s 3 -d 7 -p cbr -e 1000 -c 2 -i 13 -a 2 -x {1.0 6.0 13 ------- null}
- -t 0.831333333333333 -s 3 -d 7 -p cbr -e 1000 -c 2 -i 13 -a 2 -x {1.0 6.0 13 ------- null}
h -t 0.831333333333333 -s 3 -d 7 -p cbr -e 1000 -c 2 -i 13 -a 2 -x {1.0 6.0 -1 ------- null}
d -t 0.831337333333333 -s 5 -d 7 -p cbr -e 1000 -c 2 -i 13 -a 2 -x {1.0 6.0 13 ------- null}
d -t 0.831337333333333 -s 4 -d 7 -p cbr -e 1000 -c 2 -i 13 -a 2 -x {1.0 6.0 13 ------- null}
+ -t 0.835714285714287 -s 1 -d 2 -p cbr -e 1000 -c 2 -i 31 -a 2 -x {1.0 6.0 30 ------- null}
- -t 0.835714285714287 -s 1 -d 2 -p cbr -e 1000 -c 2 -i 31 -a 2 -x {1.0 6.0 30 ------- null}
h -t 0.835714285714287 -s 1 -d 2 -p cbr -e 1000 -c 2 -i 31 -a 2 -x {1.0 6.0 -1 ------- null}
r -t 0.835857142857144 -s 1 -d 2 -p cbr -e 1000 -c 2 -i 30 -a 2 -x {1.0 6.0 29 ------- null}
+ -t 0.835857142857144 -s 2 -d 3 -p cbr -e 1000 -c 2 -i 30 -a 2 -x {1.0 6.0 29 ------- null}
r -t 0.844666666666666 -s 2 -d 3 -p cbr -e 1000 -c 2 -i 15 -a 2 -x {1.0 6.0 15 ------- null}
h -t 0.844666666666666 -s 3 -d 7 -p cbr -e 1000 -c 2 -i 15 -a 2 -x {1.0 6.0 15 ------- null}
r -t 0.844670666666667 -s 7 -d 6 -p cbr -e 1000 -c 2 -i 12 -a 2 -x {1.0 6.0 12 ------- null}
- -t 0.851333333333333 -s 2 -d 3 -p cbr -e 1000 -c 2 -i 20 -a 2 -x {1.0 6.0 20 ------- null}
h -t 0.851333333333333 -s 2 -d 3 -p cbr -e 1000 -c 2 -i 20 -a 2 -x {1.0 6.0 -1 ------- null}
+ -t 0.853571428571429 -s 1 -d 2 -p cbr -e 1000 -c 2 -i 32 -a 2 -x {1.0 6.0 31 ------- null}
- -t 0.853571428571429 -s 1 -d 2 -p cbr -e 1000 -c 2 -i 32 -a 2 -x {1.0 6.0 31 ------- null}
h -t 0.853571428571429 -s 1 -d 2 -p cbr -e 1000 -c 2 -i 32 -a 2 -x {1.0 6.0 -1 ------- null}
r -t 0.853714285714287 -s 1 -d 2 -p cbr -e 1000 -c 2 -i 31 -a 2 -x {1.0 6.0 30 ------- null}
+ -t 0.853714285714287 -s 2 -d 3 -p cbr -e 1000 -c 2 -i 31 -a 2 -x {1.0 6.0 30 ------- null}
+ -t 0.858 -s 3 -d 7 -p cbr -e 1000 -c 2 -i 14 -a 2 -x {1.0 6.0 14 ------- null}
- -t 0.858 -s 3 -d 7 -p cbr -e 1000 -c 2 -i 14 -a 2 -x {1.0 6.0 14 ------- null}
h -t 0.858 -s 3 -d 7 -p cbr -e 1000 -c 2 -i 14 -a 2 -x {1.0 6.0 -1 ------- null}
d -t 0.858004 -s 5 -d 7 -p cbr -e 1000 -c 2 -i 14 -a 2 -x {1.0 6.0 14 ------- null}
d -t 0.858004 -s 4 -d 7 -p cbr -e 1000 -c 2 -i 14 -a 2 -x {1.0 6.0 14 ------- null}