+ 0.3 1 2 cbr 1000 ------- 2 1.0 6.0 0 0
- 0.3 1 2 cbr 1000 ------- 2 1.0 6.0 0 0
+ 0.317857 1 2 cbr 1000 ------- 2 1.0 6.0 1 1
- 0.317857 1 2 cbr 1000 ------- 2 1.0 6.0 1 1
r 0.318 1 2 cbr 1000 ------- 2 1.0 6.0 0 0
+ 0.318 2 3 cbr 1000 ------- 2 1.0 6.0 0 0
- 0.318 2 3 cbr 1000 ------- 2 1.0 6.0 0 0
+ 0.335714 1 2 cbr 1000 ------- 2 1.0 6.0 2 2
- 0.335714 1 2 cbr 1000 ------- 2 1.0 6.0 2 2
r 0.335857 1 2 cbr 1000 ------- 2 1.0 6.0 1 1
+ 0.335857 2 3 cbr 1000 ------- 2 1.0 6.0 1 1
- 0.344667 2 3 cbr 1000 ------- 2 1.0 6.0 1 1
+ 0.353571 1 2 cbr 1000 ------- 2 1.0 6.0 3 3
- 0.353571 1 2 cbr 1000 ------- 2 1.0 6.0 3 3
r 0.353714 1 2 cbr 1000 ------- 2 1.0 6.0 2 2
+ 0.353714 2 3 cbr 1000 ------- 2 1.0 6.0 2 2
- 0.371333 2 3 cbr 1000 ------- 2 1.0 6.0 2 2
+ 0.371429 1 2 cbr 1000 ------- 2 1.0 6.0 4 4
- 0.371429 1 2 cbr 1000 ------- 2 1.0 6.0 4 4
r 0.371571 1 2 cbr 1000 ------- 2 1.0 6.0 3 3
+ 0.371571 2 3 cbr 1000 ------- 2 1.0 6.0 3 3
+ 0.389286 1 2 cbr 1000 ------- 2 1.0 6.0 5 5
- 0.389286 1 2 cbr 1000 ------- 2 1.0 6.0 5 5
r 0.389429 1 2 cbr 1000 ------- 2 1.0 6.0 4 4
+ 0.389429 2 3 cbr 1000 ------- 2 1.0 6.0 4 4
- 0.398 2 3 cbr 1000 ------- 2 1.0 6.0 3 3
+ 0.407143 1 2 cbr 1000 ------- 2 1.0 6.0 6 6
- 0.407143 1 2 cbr 1000 ------- 2 1.0 6.0 6 6
r 0.407286 1 2 cbr 1000 ------- 2 1.0 6.0 5 5
+ 0.407286 2 3 cbr 1000 ------- 2 1.0 6.0 5 5
- 0.424667 2 3 cbr 1000 ------- 2 1.0 6.0 4 4
+ 0.425 1 2 cbr 1000 ------- 2 1.0 6.0 7 7
- 0.425 1 2 cbr 1000 ------- 2 1.0 6.0 7 7
r 0.425143 1 2 cbr 1000 ------- 2 1.0 6.0 6 6
+ 0.425143 2 3 cbr 1000 ------- 2 1.0 6.0 6 6
+ 0.442857 1 2 cbr 1000 ------- 2 1.0 6.0 8 8
- 0.442857 1 2 cbr 1000 ------- 2 1.0 6.0 8 8
r 0.443 1 2 cbr 1000 ------- 2 1.0 6.0 7 7
+ 0.443 2 3 cbr 1000 ------- 2 1.0 6.0 7 7
r 0.444667 2 3 cbr 1000 ------- 2 1.0 6.0 0 0
h 0.444667 3 7 cbr 1000 ------- 2 1.0 6.0 0 0
- 0.451333 2 3 cbr 1000 ------- 2 1.0 6.0 5 5
+ 0.460714 1 2 cbr 1000 ------- 2 1.0 6.0 9 9
- 0.460714 1 2 cbr 1000 ------- 2 1.0 6.0 9 9
r 0.460857 1 2 cbr 1000 ------- 2 1.0 6.0 8 8
+ 0.460857 2 3 cbr 1000 ------- 2 1.0 6.0 8 8
r 0.471333 2 3 cbr 1000 ------- 2 1.0 6.0 1 1
h 0.471333 3 7 cbr 1000 ------- 2 1.0 6.0 1 1
- 0.478 2 3 cbr 1000 ------- 2 1.0 6.0 6 6
+ 0.478571 1 2 cbr 1000 ------- 2 1.0 6.0 10 10
- 0.478571 1 2 cbr 1000 ------- 2 1.0 6.0 10 10
r 0.478714 1 2 cbr 1000 ------- 2 1.0 6.0 9 9
+ 0.478714 2 3 cbr 1000 ------- 2 1.0 6.0 9 9
+ 0.484667 3 7 cbr 1000 ------- 2 1.0 6.0 0 0
- 0.484667 3 7 cbr 1000 ------- 2 1.0 6.0 0 0
d 0.484671 5 7 cbr 1000 ------- 2 1.0 6.0 0 0
d 0.484671 4 7 cbr 1000 ------- 2 1.0 6.0 0 0
+ 0.496429 1 2 cbr 1000 ------- 2 1.0 6.0 11 11
- 0.496429 1 2 cbr 1000 ------- 2 1.0 6.0 11 11
r 0.496571 1 2 cbr 1000 ------- 2 1.0 6.0 10 10
+ 0.496571 2 3 cbr 1000 ------- 2 1.0 6.0 10 10
r 0.498 2 3 cbr 1000 ------- 2 1.0 6.0 2 2
h 0.498 3 7 cbr 1000 ------- 2 1.0 6.0 2 2
- 0.504667 2 3 cbr 1000 ------- 2 1.0 6.0 7 7
+ 0.511333 3 7 cbr 1000 ------- 2 1.0 6.0 1 1
- 0.511333 3 7 cbr 1000 ------- 2 1.0 6.0 1 1
d 0.511337 5 7 cbr 1000 ------- 2 1.0 6.0 1 1
d 0.511337 4 7 cbr 1000 ------- 2 1.0 6.0 1 1
+ 0.514286 1 2 cbr 1000 ------- 2 1.0 6.0 12 12
- 0.514286 1 2 cbr 1000 ------- 2 1.0 6.0 12 12
r 0.514429 1 2 cbr 1000 ------- 2 1.0 6.0 11 11
+ 0.514429 2 3 cbr 1000 ------- 2 1.0 6.0 11 11
r 0.524667 2 3 cbr 1000 ------- 2 1.0 6.0 3 3
h 0.524667 3 7 cbr 1000 ------- 2 1.0 6.0 3 3
r 0.524671 7 6 cbr 1000 ------- 2 1.0 6.0 0 0
- 0.531333 2 3 cbr 1000 ------- 2 1.0 6.0 8 8
+ 0.532143 1 2 cbr 1000 ------- 2 1.0 6.0 13 13
- 0.532143 1 2 cbr 1000 ------- 2 1.0 6.0 13 13
r 0.532286 1 2 cbr 1000 ------- 2 1.0 6.0 12 12
+ 0.532286 2 3 cbr 1000 ------- 2 1.0 6.0 12 12
+ 0.538 3 7 cbr 1000 ------- 2 1.0 6.0 2 2
- 0.538 3 7 cbr 1000 ------- 2 1.0 6.0 2 2
d 0.538004 5 7 cbr 1000 ------- 2 1.0 6.0 2 2
d 0.538004 4 7 cbr 1000 ------- 2 1.0 6.0 2 2
+ 0.55 1 2 cbr 1000 ------- 2 1.0 6.0 14 14
- 0.55 1 2 cbr 1000 ------- 2 1.0 6.0 14 14
r 0.550143 1 2 cbr 1000 ------- 2 1.0 6.0 13 13
+ 0.550143 2 3 cbr 1000 ------- 2 1.0 6.0 13 13
r 0.551333 2 3 cbr 1000 ------- 2 1.0 6.0 4 4
h 0.551333 3 7 cbr 1000 ------- 2 1.0 6.0 4 4
r 0.551337 7 6 cbr 1000 ------- 2 1.0 6.0 1 1
- 0.558 2 3 cbr 1000 ------- 2 1.0 6.0 9 9
+ 0.564667 3 7 cbr 1000 ------- 2 1.0 6.0 3 3
- 0.564667 3 7 cbr 1000 ------- 2 1.0 6.0 3 3
d 0.564671 5 7 cbr 1000 ------- 2 1.0 6.0 3 3
d 0.564671 4 7 cbr 1000 ------- 2 1.0 6.0 3 3
+ 0.567857 1 2 cbr 1000 ------- 2 1.0 6.0 15 15
- 0.567857 1 2 cbr 1000 ------- 2 1.0 6.0 15 15
r 0.568 1 2 cbr 1000 ------- 2 1.0 6.0 14 14
+ 0.568 2 3 cbr 1000 ------- 2 1.0 6.0 14 14
r 0.578 2 3 cbr 1000 ------- 2 1.0 6.0 5 5
h 0.578 3 7 cbr 1000 ------- 2 1.0 6.0 5 5
r 0.578004 7 6 cbr 1000 ------- 2 1.0 6.0 2 2
- 0.584667 2 3 cbr 1000 ------- 2 1.0 6.0 10 10
+ 0.585714 1 2 cbr 1000 ------- 2 1.0 6.0 16 16
- 0.585714 1 2 cbr 1000 ------- 2 1.0 6.0 16 16
r 0.585857 1 2 cbr 1000 ------- 2 1.0 6.0 15 15
+ 0.585857 2 3 cbr 1000 ------- 2 1.0 6.0 15 15
+ 0.591333 3 7 cbr 1000 ------- 2 1.0 6.0 4 4
- 0.591333 3 7 cbr 1000 ------- 2 1.0 6.0 4 4
d 0.591337 5 7 cbr 1000 ------- 2 1.0 6.0 4 4
d 0.591337 4 7 cbr 1000 ------- 2 1.0 6.0 4 4
+ 0.603571 1 2 cbr 1000 ------- 2 1.0 6.0 17 17
- 0.603571 1 2 cbr 1000 ------- 2 1.0 6.0 17 17
r 0.603714 1 2 cbr 1000 ------- 2 1.0 6.0 16 16
+ 0.603714 2 3 cbr 1000 ------- 2 1.0 6.0 16 16
r 0.604667 2 3 cbr 1000 ------- 2 1.0 6.0 6 6
h 0.604667 3 7 cbr 1000 ------- 2 1.0 6.0 6 6
r 0.604671 7 6 cbr 1000 ------- 2 1.0 6.0 3 3
- 0.611333 2 3 cbr 1000 ------- 2 1.0 6.0 11 11
+ 0.618 3 7 cbr 1000 ------- 2 1.0 6.0 5 5
- 0.618 3 7 cbr 1000 ------- 2 1.0 6.0 5 5
d 0.618004 5 7 cbr 1000 ------- 2 1.0 6.0 5 5
d 0.618004 4 7 cbr 1000 ------- 2 1.0 6.0 5 5
+ 0.621429 1 2 cbr 1000 ------- 2 1.0 6.0 18 18
- 0.621429 1 2 cbr 1000 ------- 2 1.0 6.0 18 18
r 0.621571 1 2 cbr 1000 ------- 2 1.0 6.0 17 17
+ 0.621571 2 3 cbr 1000 ------- 2 1.0 6.0 17 17
r 0.631333 2 3 cbr 1000 ------- 2 1.0 6.0 7 7
h 0.631333 3 7 cbr 1000 ------- 2 1.0 6.0 7 7
r 0.631337 7 6 cbr 1000 ------- 2 1.0 6.0 4 4
- 0.638 2 3 cbr 1000 ------- 2 1.0 6.0 12 12
+ 0.639286 1 2 cbr 1000 ------- 2 1.0 6.0 19 19
- 0.639286 1 2 cbr 1000 ------- 2 1.0 6.0 19 19
r 0.639429 1 2 cbr 1000 ------- 2 1.0 6.0 18 18
+ 0.639429 2 3 cbr 1000 ------- 2 1.0 6.0 18 18
+ 0.644667 3 7 cbr 1000 ------- 2 1.0 6.0 6 6
- 0.644667 3 7 cbr 1000 ------- 2 1.0 6.0 6 6
d 0.644671 5 7 cbr 1000 ------- 2 1.0 6.0 6 6
d 0.644671 4 7 cbr 1000 ------- 2 1.0 6.0 6 6
+ 0.657143 1 2 cbr 1000 ------- 2 1.0 6.0 20 20
- 0.657143 1 2 cbr 1000 ------- 2 1.0 6.0 20 20
r 0.657286 1 2 cbr 1000 ------- 2 1.0 6.0 19 19
+ 0.657286 2 3 cbr 1000 ------- 2 1.0 6.0 19 19
r 0.658 2 3 cbr 1000 ------- 2 1.0 6.0 8 8
h 0.658 3 7 cbr 1000 ------- 2 1.0 6.0 8 8
r 0.658004 7 6 cbr 1000 ------- 2 1.0 6.0 5 5
- 0.664667 2 3 cbr 1000 ------- 2 1.0 6.0 13 13
+ 0.671333 3 7 cbr 1000 ------- 2 1.0 6.0 7 7
- 0.671333 3 7 cbr 1000 ------- 2 1.0 6.0 7 7
d 0.671337 5 7 cbr 1000 ------- 2 1.0 6.0 7 7
d 0.671337 4 7 cbr 1000 ------- 2 1.0 6.0 7 7
+ 0.675 1 2 cbr 1000 ------- 2 1.0 6.0 21 21
- 0.675 1 2 cbr 1000 ------- 2 1.0 6.0 21 21
r 0.675143 1 2 cbr 1000 ------- 2 1.0 6.0 20 20
+ 0.675143 2 3 cbr 1000 ------- 2 1.0 6.0 20 20
r 0.684667 2 3 cbr 1000 ------- 2 1.0 6.0 9 9
h 0.684667 3 7 cbr 1000 ------- 2 1.0 6.0 9 9
r 0.684671 7 6 cbr 1000 ------- 2 1.0 6.0 6 6
- 0.691333 2 3 cbr 1000 ------- 2 1.0 6.0 14 14
+ 0.692857 1 2 cbr 1000 ------- 2 1.0 6.0 22 22
- 0.692857 1 2 cbr 1000 ------- 2 1.0 6.0 22 22
r 0.693 1 2 cbr 1000 ------- 2 1.0 6.0 21 21
+ 0.693 2 3 cbr 1000 ------- 2 1.0 6.0 21 21
+ 0.698 3 7 cbr 1000 ------- 2 1.0 6.0 8 8
- 0.698 3 7 cbr 1000 ------- 2 1.0 6.0 8 8
d 0.698004 5 7 cbr 1000 ------- 2 1.0 6.0 8 8
d 0.698004 4 7 cbr 1000 ------- 2 1.0 6.0 8 8
+ 0.710714 1 2 cbr 1000 ------- 2 1.0 6.0 23 23
- 0.710714 1 2 cbr 1000 ------- 2 1.0 6.0 23 23
r 0.710857 1 2 cbr 1000 ------- 2 1.0 6.0 22 22
+ 0.710857 2 3 cbr 1000 ------- 2 1.0 6.0 22 22
r 0.711333 2 3 cbr 1000 ------- 2 1.0 6.0 10 10
h 0.711333 3 7 cbr 1000 ------- 2 1.0 6.0 10 10
r 0.711337 7 6 cbr 1000 ------- 2 1.0 6.0 7 7
- 0.718 2 3 cbr 1000 ------- 2 1.0 6.0 15 15
+ 0.724667 3 7 cbr 1000 ------- 2 1.0 6.0 9 9
- 0.724667 3 7 cbr 1000 ------- 2 1.0 6.0 9 9
d 0.724671 5 7 cbr 1000 ------- 2 1.0 6.0 9 9
d 0.724671 4 7 cbr 1000 ------- 2 1.0 6.0 9 9
+ 0.728571 1 2 cbr 1000 ------- 2 1.0 6.0 24 24
- 0.728571 1 2 cbr 1000 ------- 2 1.0 6.0 24 24
r 0.728714 1 2 cbr 1000 ------- 2 1.0 6.0 23 23
+ 0.728714 2 3 cbr 1000 ------- 2 1.0 6.0 23 23
r 0.738 2 3 cbr 1000 ------- 2 1.0 6.0 11 11
h 0.738 3 7 cbr 1000 ------- 2 1.0 6.0 11 11
r 0.738004 7 6 cbr 1000 ------- 2 1.0 6.0 8 8
- 0.744667 2 3 cbr 1000 ------- 2 1.0 6.0 16 16
+ 0.746429 1 2 cbr 1000 ------- 2 1.0 6.0 25 25
- 0.746429 1 2 cbr 1000 ------- 2 1.0 6.0 25 25
r 0.746571 1 2 cbr 1000 ------- 2 1.0 6.0 24 24
+ 0.746571 2 3 cbr 1000 ------- 2 1.0 6.0 24 24
+ 0.751333 3 7 cbr 1000 ------- 2 1.0 6.0 10 10
- 0.751333 3 7 cbr 1000 ------- 2 1.0 6.0 10 10
d 0.751337 5 7 cbr 1000 ------- 2 1.0 6.0 10 10
d 0.751337 4 7 cbr 1000 ------- 2 1.0 6.0 10 10
+ 0.764286 1 2 cbr 1000 ------- 2 1.0 6.0 26 26
- 0.764286 1 2 cbr 1000 ------- 2 1.0 6.0 26 26
r 0.764429 1 2 cbr 1000 ------- 2 1.0 6.0 25 25
+ 0.764429 2 3 cbr 1000 ------- 2 1.0 6.0 25 25
r 0.764667 2 3 cbr 1000 ------- 2 1.0 6.0 12 12
h 0.764667 3 7 cbr 1000 ------- 2 1.0 6.0 12 12
r 0.764671 7 6 cbr 1000 ------- 2 1.0 6.0 9 9
- 0.771333 2 3 cbr 1000 ------- 2 1.0 6.0 17 17
+ 0.778 3 7 cbr 1000 ------- 2 1.0 6.0 11 11
- 0.778 3 7 cbr 1000 ------- 2 1.0 6.0 11 11
d 0.778004 5 7 cbr 1000 ------- 2 1.0 6.0 11 11
d 0.778004 4 7 cbr 1000 ------- 2 1.0 6.0 11 11
+ 0.782143 1 2 cbr 1000 ------- 2 1.0 6.0 27 27
- 0.782143 1 2 cbr 1000 ------- 2 1.0 6.0 27 27
r 0.782286 1 2 cbr 1000 ------- 2 1.0 6.0 26 26
+ 0.782286 2 3 cbr 1000 ------- 2 1.0 6.0 26 26
r 0.791333 2 3 cbr 1000 ------- 2 1.0 6.0 13 13
h 0.791333 3 7 cbr 1000 ------- 2 1.0 6.0 13 13
r 0.791337 7 6 cbr 1000 ------- 2 1.0 6.0 10 10
- 0.798 2 3 cbr 1000 ------- 2 1.0 6.0 18 18
+ 0.8 0 2 tcp 40 ------- 1 0.0 4.0 0 28
- 0.8 0 2 tcp 40 ------- 1 0.0 4.0 0 28
+ 0.8 1 2 cbr 1000 ------- 2 1.0 6.0 28 29
- 0.8 1 2 cbr 1000 ------- 2 1.0 6.0 28 29
r 0.800143 1 2 cbr 1000 ------- 2 1.0 6.0 27 27
+ 0.800143 2 3 cbr 1000 ------- 2 1.0 6.0 27 27
+ 0.804667 3 7 cbr 1000 ------- 2 1.0 6.0 12 12
- 0.804667 3 7 cbr 1000 ------- 2 1.0 6.0 12 12
d 0.804671 5 7 cbr 1000 ------- 2 1.0 6.0 12 12
d 0.804671 4 7 cbr 1000 ------- 2 1.0 6.0 12 12
r 0.81032 0 2 tcp 40 ------- 1 0.0 4.0 0 28
+ 0.81032 2 3 tcp 40 ------- 1 0.0 4.0 0 28
+ 0.817857 1 2 cbr 1000 ------- 2 1.0 6.0 29 30
- 0.817857 1 2 cbr 1000 ------- 2 1.0 6.0 29 30
r 0.818 2 3 cbr 1000 ------- 2 1.0 6.0 14 14
h 0.818 3 7 cbr 1000 ------- 2 1.0 6.0 14 14
r 0.818 1 2 cbr 1000 ------- 2 1.0 6.0 28 29
+ 0.818 2 3 cbr 1000 ------- 2 1.0 6.0 28 29
r 0.818004 7 6 cbr 1000 ------- 2 1.0 6.0 11 11
- 0.824667 2 3 cbr 1000 ------- 2 1.0 6.0 19 19
+ 0.831333 3 7 cbr 1000 ------- 2 1.0 6.0 13 13
- 0.831333 3 7 cbr 1000 ------- 2 1.0 6.0 13 13
d 0.831337 5 7 cbr 1000 ------- 2 1.0 6.0 13 13
d 0.831337 4 7 cbr 1000 ------- 2 1.0 6.0 13 13
+ 0.835714 1 2 cbr 1000 ------- 2 1.0 6.0 30 31
- 0.835714 1 2 cbr 1000 ------- 2 1.0 6.0 30 31
r 0.835857 1 2 cbr 1000 ------- 2 1.0 6.0 29 30
+ 0.835857 2 3 cbr 1000 ------- 2 1.0 6.0 29 30
r 0.844667 2 3 cbr 1000 ------- 2 1.0 6.0 15 15
h 0.844667 3 7 cbr 1000 ------- 2 1.0 6.0 15 15
r 0.844671 7 6 cbr 1000 ------- 2 1.0 6.0 12 12
- 0.851333 2 3 cbr 1000 ------- 2 1.0 6.0 20 20
+ 0.853571 1 2 cbr 1000 ------- 2 1.0 6.0 31 32
- 0.853571 1 2 cbr 1000 ------- 2 1.0 6.0 31 32
r 0.853714 1 2 cbr 1000 ------- 2 1.0 6.0 30 31
+ 0.853714 2 3 cbr 1000 ------- 2 1.0 6.0 30 31
+ 0.858 3 7 cbr 1000 ------- 2 1.0 6.0 14 14
- 0.858 3 7 cbr 1000 ------- 2 1.0 6.0 14 14
d 0.858004 5 7 cbr 1000 ------- 2 1.0 6.0 14 14
d 0.858004 4 7 cbr 1000 ------- 2 1.0 6.0 14 14
r 0.871333 2 3 cbr 1000 ------- 2 1.0 6.0 16 16
h 0.871333 3 7 cbr 1000 ------- 2 1.0 6.0 16 16
r 0.871337 7 6 cbr 1000 ------- 2 1.0 6.0 13 13
+ 0.871429 1 2 cbr 1000 ------- 2 1.0 6.0 32 33
- 0.871429 1 2 cbr 1000 ------- 2 1.0 6.0 32 33
r 0.871571 1 2 cbr 1000 ------- 2 1.0 6.0 31 32
+ 0.871571 2 3 cbr 1000 ------- 2 1.0 6.0 31 32
- 0.878 2 3 cbr 1000 ------- 2 1.0 6.0 21 21
+ 0.884667 3 7 cbr 1000 ------- 2 1.0 6.0 15 15
- 0.884667 3 7 cbr 1000 ------- 2 1.0 6.0 15 15
d 0.884671 5 7 cbr 1000 ------- 2 1.0 6.0 15 15
d 0.884671 4 7 cbr 1000 ------- 2 1.0 6.0 15 15
+ 0.889286 1 2 cbr 1000 ------- 2 1.0 6.0 33 34
- 0.889286 1 2 cbr 1000 ------- 2 1.0 6.0 33 34
r 0.889429 1 2 cbr 1000 ------- 2 1.0 6.0 32 33
+ 0.889429 2 3 cbr 1000 ------- 2 1.0 6.0 32 33
r 0.898 2 3 cbr 1000 ------- 2 1.0 6.0 17 17
h 0.898 3 7 cbr 1000 ------- 2 1.0 6.0 17 17
r 0.898004 7 6 cbr 1000 ------- 2 1.0 6.0 14 14
- 0.904667 2 3 cbr 1000 ------- 2 1.0 6.0 22 22
+ 0.907143 1 2 cbr 1000 ------- 2 1.0 6.0 34 35
- 0.907143 1 2 cbr 1000 ------- 2 1.0 6.0 34 35
r 0.907286 1 2 cbr 1000 ------- 2 1.0 6.0 33 34
+ 0.907286 2 3 cbr 1000 ------- 2 1.0 6.0 33 34
+ 0.911333 3 7 cbr 1000 ------- 2 1.0 6.0 16 16
- 0.911333 3 7 cbr 1000 ------- 2 1.0 6.0 16 16
d 0.911337 5 7 cbr 1000 ------- 2 1.0 6.0 16 16
d 0.911337 4 7 cbr 1000 ------- 2 1.0 6.0 16 16
r 0.924667 2 3 cbr 1000 ------- 2 1.0 6.0 18 18
h 0.924667 3 7 cbr 1000 ------- 2 1.0 6.0 18 18
r 0.924671 7 6 cbr 1000 ------- 2 1.0 6.0 15 15
+ 0.925 1 2 cbr 1000 ------- 2 1.0 6.0 35 36
- 0.925 1 2 cbr 1000 ------- 2 1.0 6.0 35 36
r 0.925143 1 2 cbr 1000 ------- 2 1.0 6.0 34 35
+ 0.925143 2 3 cbr 1000 ------- 2 1.0 6.0 34 35
- 0.931333 2 3 cbr 1000 ------- 2 1.0 6.0 23 23
+ 0.938 3 7 cbr 1000 ------- 2 1.0 6.0 17 17
- 0.938 3 7 cbr 1000 ------- 2 1.0 6.0 17 17
d 0.938004 5 7 cbr 1000 ------- 2 1.0 6.0 17 17
d 0.938004 4 7 cbr 1000 ------- 2 1.0 6.0 17 17
+ 0.942857 1 2 cbr 1000 ------- 2 1.0 6.0 36 37
- 0.942857 1 2 cbr 1000 ------- 2 1.0 6.0 36 37
r 0.943 1 2 cbr 1000 ------- 2 1.0 6.0 35 36
+ 0.943 2 3 cbr 1000 ------- 2 1.0 6.0 35 36
r 0.951333 2 3 cbr 1000 ------- 2 1.0 6.0 19 19
h 0.951333 3 7 cbr 1000 ------- 2 1.0 6.0 19 19
r 0.951337 7 6 cbr 1000 ------- 2 1.0 6.0 16 16
- 0.958 2 3 cbr 1000 ------- 2 1.0 6.0 24 24
+ 0.960714 1 2 cbr 1000 ------- 2 1.0 6.0 37 38
- 0.960714 1 2 cbr 1000 ------- 2 1.0 6.0 37 38
r 0.960857 1 2 cbr 1000 ------- 2 1.0 6.0 36 37
+ 0.960857 2 3 cbr 1000 ------- 2 1.0 6.0 36 37
+ 0.964667 3 7 cbr 1000 ------- 2 1.0 6.0 18 18
- 0.964667 3 7 cbr 1000 ------- 2 1.0 6.0 18 18
d 0.964671 5 7 cbr 1000 ------- 2 1.0 6.0 18 18
d 0.964671 4 7 cbr 1000 ------- 2 1.0 6.0 18 18
r 0.978 2 3 cbr 1000 ------- 2 1.0 6.0 20 20
h 0.978 3 7 cbr 1000 ------- 2 1.0 6.0 20 20
r 0.978004 7 6 cbr 1000 ------- 2 1.0 6.0 17 17
+ 0.978571 1 2 cbr 1000 ------- 2 1.0 6.0 38 39
- 0.978571 1 2 cbr 1000 ------- 2 1.0 6.0 38 39
r 0.978714 1 2 cbr 1000 ------- 2 1.0 6.0 37 38
+ 0.978714 2 3 cbr 1000 ------- 2 1.0 6.0 37 38
- 0.984667 2 3 cbr 1000 ------- 2 1.0 6.0 25 25
+ 0.991333 3 7 cbr 1000 ------- 2 1.0 6.0 19 19
- 0.991333 3 7 cbr 1000 ------- 2 1.0 6.0 19 19
d 0.991337 5 7 cbr 1000 ------- 2 1.0 6.0 19 19
d 0.991337 4 7 cbr 1000 ------- 2 1.0 6.0 19 19
+ 0.996429 1 2 cbr 1000 ------- 2 1.0 6.0 39 40
- 0.996429 1 2 cbr 1000 ------- 2 1.0 6.0 39 40
r 0.996571 1 2 cbr 1000 ------- 2 1.0 6.0 38 39
+ 0.996571 2 3 cbr 1000 ------- 2 1.0 6.0 38 39
r 1.004667 2 3 cbr 1000 ------- 2 1.0 6.0 21 21
h 1.004667 3 7 cbr 1000 ------- 2 1.0 6.0 21 21
r 1.004671 7 6 cbr 1000 ------- 2 1.0 6.0 18 18
- 1.011333 2 3 cbr 1000 ------- 2 1.0 6.0 26 26
+ 1.014286 1 2 cbr 1000 ------- 2 1.0 6.0 40 41
- 1.014286 1 2 cbr 1000 ------- 2 1.0 6.0 40 41
r 1.014429 1 2 cbr 1000 ------- 2 1.0 6.0 39 40
+ 1.014429 2 3 cbr 1000 ------- 2 1.0 6.0 39 40
+ 1.018 3 7 cbr 1000 ------- 2 1.0 6.0 20 20
- 1.018 3 7 cbr 1000 ------- 2 1.0 6.0 20 20
d 1.018004 5 7 cbr 1000 ------- 2 1.0 6.0 20 20
d 1.018004 4 7 cbr 1000 ------- 2 1.0 6.0 20 20
r 1.031333 2 3 cbr 1000 ------- 2 1.0 6.0 22 22
h 1.031333 3 7 cbr 1000 ------- 2 1.0 6.0 22 22
r 1.031337 7 6 cbr 1000 ------- 2 1.0 6.0 19 19
+ 1.032143 1 2 cbr 1000 ------- 2 1.0 6.0 41 42
- 1.032143 1 2 cbr 1000 ------- 2 1.0 6.0 41 42
r 1.032286 1 2 cbr 1000 ------- 2 1.0 6.0 40 41
+ 1.032286 2 3 cbr 1000 ------- 2 1.0 6.0 40 41
- 1.038 2 3 cbr 1000 ------- 2 1.0 6.0 27 27
+ 1.044667 3 7 cbr 1000 ------- 2 1.0 6.0 21 21
- 1.044667 3 7 cbr 1000 ------- 2 1.0 6.0 21 21
d 1.044671 5 7 cbr 1000 ------- 2 1.0 6.0 21 21
d 1.044671 4 7 cbr 1000 ------- 2 1.0 6.0 21 21
+ 1.05 1 2 cbr 1000 ------- 2 1.0 6.0 42 43
- 1.05 1 2 cbr 1000 ------- 2 1.0 6.0 42 43
r 1.050143 1 2 cbr 1000 ------- 2 1.0 6.0 41 42
+ 1.050143 2 3 cbr 1000 ------- 2 1.0 6.0 41 42
r 1.058 2 3 cbr 1000 ------- 2 1.0 6.0 23 23
h 1.058 3 7 cbr 1000 ------- 2 1.0 6.0 23 23
r 1.058004 7 6 cbr 1000 ------- 2 1.0 6.0 20 20
- 1.064667 2 3 tcp 40 ------- 1 0.0 4.0 0 28
- 1.065733 2 3 cbr 1000 ------- 2 1.0 6.0 28 29
+ 1.067857 1 2 cbr 1000 ------- 2 1.0 6.0 43 44
- 1.067857 1 2 cbr 1000 ------- 2 1.0 6.0 43 44
r 1.068 1 2 cbr 1000 ------- 2 1.0 6.0 42 43
+ 1.068 2 3 cbr 1000 ------- 2 1.0 6.0 42 43
+ 1.071333 3 7 cbr 1000 ------- 2 1.0 6.0 22 22
- 1.071333 3 7 cbr 1000 ------- 2 1.0 6.0 22 22
d 1.071337 5 7 cbr 1000 ------- 2 1.0 6.0 22 22
d 1.071337 4 7 cbr 1000 ------- 2 1.0 6.0 22 22
r 1.084667 2 3 cbr 1000 ------- 2 1.0 6.0 24 24
h 1.084667 3 7 cbr 1000 ------- 2 1.0 6.0 24 24
r 1.084671 7 6 cbr 1000 ------- 2 1.0 6.0 21 21
+ 1.085714 1 2 cbr 1000 ------- 2 1.0 6.0 44 45
- 1.085714 1 2 cbr 1000 ------- 2 1.0 6.0 44 45
r 1.085857 1 2 cbr 1000 ------- 2 1.0 6.0 43 44
+ 1.085857 2 3 cbr 1000 ------- 2 1.0 6.0 43 44
- 1.0924 2 3 cbr 1000 ------- 2 1.0 6.0 29 30
+ 1.098 3 7 cbr 1000 ------- 2 1.0 6.0 23 23
- 1.098 3 7 cbr 1000 ------- 2 1.0 6.0 23 23
d 1.098004 5 7 cbr 1000 ------- 2 1.0 6.0 23 23
d 1.098004 4 7 cbr 1000 ------- 2 1.0 6.0 23 23
+ 1.103571 1 2 cbr 1000 ------- 2 1.0 6.0 45 46
- 1.103571 1 2 cbr 1000 ------- 2 1.0 6.0 45 46
r 1.103714 1 2 cbr 1000 ------- 2 1.0 6.0 44 45
+ 1.103714 2 3 cbr 1000 ------- 2 1.0 6.0 44 45
r 1.111333 2 3 cbr 1000 ------- 2 1.0 6.0 25 25
h 1.111333 3 7 cbr 1000 ------- 2 1.0 6.0 25 25
r 1.111337 7 6 cbr 1000 ------- 2 1.0 6.0 22 22
- 1.119067 2 3 cbr 1000 ------- 2 1.0 6.0 30 31
+ 1.121429 1 2 cbr 1000 ------- 2 1.0 6.0 46 47
- 1.121429 1 2 cbr 1000 ------- 2 1.0 6.0 46 47
r 1.121571 1 2 cbr 1000 ------- 2 1.0 6.0 45 46
+ 1.121571 2 3 cbr 1000 ------- 2 1.0 6.0 45 46
+ 1.124667 3 7 cbr 1000 ------- 2 1.0 6.0 24 24
- 1.124667 3 7 cbr 1000 ------- 2 1.0 6.0 24 24
d 1.124671 5 7 cbr 1000 ------- 2 1.0 6.0 24 24
d 1.124671 4 7 cbr 1000 ------- 2 1.0 6.0 24 24
r 1.138 2 3 cbr 1000 ------- 2 1.0 6.0 26 26
h 1.138 3 7 cbr 1000 ------- 2 1.0 6.0 26 26
r 1.138004 7 6 cbr 1000 ------- 2 1.0 6.0 23 23
+ 1.139286 1 2 cbr 1000 ------- 2 1.0 6.0 47 48
- 1.139286 1 2 cbr 1000 ------- 2 1.0 6.0 47 48
r 1.139429 1 2 cbr 1000 ------- 2 1.0 6.0 46 47
+ 1.139429 2 3 cbr 1000 ------- 2 1.0 6.0 46 47
- 1.145733 2 3 cbr 1000 ------- 2 1.0 6.0 31 32
+ 1.151333 3 7 cbr 1000 ------- 2 1.0 6.0 25 25
- 1.151333 3 7 cbr 1000 ------- 2 1.0 6.0 25 25
d 1.151337 5 7 cbr 1000 ------- 2 1.0 6.0 25 25
d 1.151337 4 7 cbr 1000 ------- 2 1.0 6.0 25 25
+ 1.157143 1 2 cbr 1000 ------- 2 1.0 6.0 48 49
- 1.157143 1 2 cbr 1000 ------- 2 1.0 6.0 48 49
r 1.157286 1 2 cbr 1000 ------- 2 1.0 6.0 47 48
+ 1.157286 2 3 cbr 1000 ------- 2 1.0 6.0 47 48
r 1.164667 2 3 cbr 1000 ------- 2 1.0 6.0 27 27
h 1.164667 3 7 cbr 1000 ------- 2 1.0 6.0 27 27
r 1.164671 7 6 cbr 1000 ------- 2 1.0 6.0 24 24
r 1.165733 2 3 tcp 40 ------- 1 0.0 4.0 0 28
h 1.165733 3 7 tcp 40 ------- 1 0.0 4.0 0 28
- 1.1724 2 3 cbr 1000 ------- 2 1.0 6.0 32 33
+ 1.175 1 2 cbr 1000 ------- 2 1.0 6.0 49 50
- 1.175 1 2 cbr 1000 ------- 2 1.0 6.0 49 50
r 1.175143 1 2 cbr 1000 ------- 2 1.0 6.0 48 49
+ 1.175143 2 3 cbr 1000 ------- 2 1.0 6.0 48 49
+ 1.178 3 7 cbr 1000 ------- 2 1.0 6.0 26 26
- 1.178 3 7 cbr 1000 ------- 2 1.0 6.0 26 26
d 1.178004 5 7 cbr 1000 ------- 2 1.0 6.0 26 26
d 1.178004 4 7 cbr 1000 ------- 2 1.0 6.0 26 26
r 1.191337 7 6 cbr 1000 ------- 2 1.0 6.0 25 25
r 1.1924 2 3 cbr 1000 ------- 2 1.0 6.0 28 29
h 1.1924 3 7 cbr 1000 ------- 2 1.0 6.0 28 29
+ 1.192857 1 2 cbr 1000 ------- 2 1.0 6.0 50 51
- 1.192857 1 2 cbr 1000 ------- 2 1.0 6.0 50 51
r 1.193 1 2 cbr 1000 ------- 2 1.0 6.0 49 50
+ 1.193 2 3 cbr 1000 ------- 2 1.0 6.0 49 50
- 1.199067 2 3 cbr 1000 ------- 2 1.0 6.0 33 34
+ 1.204667 3 7 cbr 1000 ------- 2 1.0 6.0 27 27
- 1.204667 3 7 cbr 1000 ------- 2 1.0 6.0 27 27
d 1.204671 5 7 cbr 1000 ------- 2 1.0 6.0 27 27
d 1.204671 4 7 cbr 1000 ------- 2 1.0 6.0 27 27
+ 1.205733 3 7 tcp 40 ------- 1 0.0 4.0 0 28
- 1.208923 3 7 tcp 40 ------- 1 0.0 4.0 0 28
d 1.208927 6 7 tcp 40 ------- 1 0.0 4.0 0 28
d 1.208927 5 7 tcp 40 ------- 1 0.0 4.0 0 28
+ 1.210714 1 2 cbr 1000 ------- 2 1.0 6.0 51 52
- 1.210714 1 2 cbr 1000 ------- 2 1.0 6.0 51 52
r 1.210857 1 2 cbr 1000 ------- 2 1.0 6.0 50 51
+ 1.210857 2 3 cbr 1000 ------- 2 1.0 6.0 50 51
r 1.218004 7 6 cbr 1000 ------- 2 1.0 6.0 26 26
r 1.219067 2 3 cbr 1000 ------- 2 1.0 6.0 29 30
h 1.219067 3 7 cbr 1000 ------- 2 1.0 6.0 29 30
- 1.225733 2 3 cbr 1000 ------- 2 1.0 6.0 34 35
+ 1.228571 1 2 cbr 1000 ------- 2 1.0 6.0 52 53
- 1.228571 1 2 cbr 1000 ------- 2 1.0 6.0 52 53
r 1.228714 1 2 cbr 1000 ------- 2 1.0 6.0 51 52
+ 1.228714 2 3 cbr 1000 ------- 2 1.0 6.0 51 52
+ 1.2324 3 7 cbr 1000 ------- 2 1.0 6.0 28 29
- 1.2324 3 7 cbr 1000 ------- 2 1.0 6.0 28 29
d 1.232404 5 7 cbr 1000 ------- 2 1.0 6.0 28 29
d 1.232404 4 7 cbr 1000 ------- 2 1.0 6.0 28 29
r 1.244671 7 6 cbr 1000 ------- 2 1.0 6.0 27 27
r 1.245733 2 3 cbr 1000 ------- 2 1.0 6.0 30 31
h 1.245733 3 7 cbr 1000 ------- 2 1.0 6.0 30 31
+ 1.246429 1 2 cbr 1000 ------- 2 1.0 6.0 53 54
- 1.246429 1 2 cbr 1000 ------- 2 1.0 6.0 53 54
r 1.246571 1 2 cbr 1000 ------- 2 1.0 6.0 52 53
+ 1.246571 2 3 cbr 1000 ------- 2 1.0 6.0 52 53
r 1.248927 7 4 tcp 40 ------- 1 0.0 4.0 0 28
h 1.248927 4 7 ack 40 ------- 1 4.0 0.0 0 55
- 1.2524 2 3 cbr 1000 ------- 2 1.0 6.0 35 36
+ 1.259067 3 7 cbr 1000 ------- 2 1.0 6.0 29 30
- 1.259067 3 7 cbr 1000 ------- 2 1.0 6.0 29 30
d 1.259071 5 7 cbr 1000 ------- 2 1.0 6.0 29 30
d 1.259071 4 7 cbr 1000 ------- 2 1.0 6.0 29 30
+ 1.264286 1 2 cbr 1000 ------- 2 1.0 6.0 54 56
- 1.264286 1 2 cbr 1000 ------- 2 1.0 6.0 54 56
r 1.264429 1 2 cbr 1000 ------- 2 1.0 6.0 53 54
+ 1.264429 2 3 cbr 1000 ------- 2 1.0 6.0 53 54
r 1.2724 2 3 cbr 1000 ------- 2 1.0 6.0 31 32
h 1.2724 3 7 cbr 1000 ------- 2 1.0 6.0 31 32
r 1.272404 7 6 cbr 1000 ------- 2 1.0 6.0 28 29
- 1.279067 2 3 cbr 1000 ------- 2 1.0 6.0 36 37
+ 1.282143 1 2 cbr 1000 ------- 2 1.0 6.0 55 57
- 1.282143 1 2 cbr 1000 ------- 2 1.0 6.0 55 57
r 1.282286 1 2 cbr 1000 ------- 2 1.0 6.0 54 56
+ 1.282286 2 3 cbr 1000 ------- 2 1.0 6.0 54 56
+ 1.285733 3 7 cbr 1000 ------- 2 1.0 6.0 30 31
- 1.285733 3 7 cbr 1000 ------- 2 1.0 6.0 30 31
d 1.285737 5 7 cbr 1000 ------- 2 1.0 6.0 30 31
d 1.285737 4 7 cbr 1000 ------- 2 1.0 6.0 30 31
+ 1.288927 4 7 ack 40 ------- 1 4.0 0.0 0 55
- 1.288927 4 7 ack 40 ------- 1 4.0 0.0 0 55
d 1.288931 6 7 ack 40 ------- 1 4.0 0.0 0 55
d 1.288931 5 7 ack 40 ------- 1 4.0 0.0 0 55
r 1.299067 2 3 cbr 1000 ------- 2 1.0 6.0 32 33
h 1.299067 3 7 cbr 1000 ------- 2 1.0 6.0 32 33
r 1.299071 7 6 cbr 1000 ------- 2 1.0 6.0 29 30
+ 1.3 1 2 cbr 1000 ------- 2 1.0 6.0 56 58
- 1.3 1 2 cbr 1000 ------- 2 1.0 6.0 56 58
r 1.300143 1 2 cbr 1000 ------- 2 1.0 6.0 55 57
+ 1.300143 2 3 cbr 1000 ------- 2 1.0 6.0 55 57
- 1.305733 2 3 cbr 1000 ------- 2 1.0 6.0 37 38
+ 1.3124 3 7 cbr 1000 ------- 2 1.0 6.0 31 32
- 1.3124 3 7 cbr 1000 ------- 2 1.0 6.0 31 32
d 1.312404 5 7 cbr 1000 ------- 2 1.0 6.0 31 32
d 1.312404 4 7 cbr 1000 ------- 2 1.0 6.0 31 32
+ 1.317857 1 2 cbr 1000 ------- 2 1.0 6.0 57 59
- 1.317857 1 2 cbr 1000 ------- 2 1.0 6.0 57 59
r 1.318 1 2 cbr 1000 ------- 2 1.0 6.0 56 58
+ 1.318 2 3 cbr 1000 ------- 2 1.0 6.0 56 58
r 1.325733 2 3 cbr 1000 ------- 2 1.0 6.0 33 34
h 1.325733 3 7 cbr 1000 ------- 2 1.0 6.0 33 34
r 1.325737 7 6 cbr 1000 ------- 2 1.0 6.0 30 31
r 1.328931 7 3 ack 40 ------- 1 4.0 0.0 0 55
+ 1.328931 3 2 ack 40 ------- 1 4.0 0.0 0 55
- 1.328931 3 2 ack 40 ------- 1 4.0 0.0 0 55
- 1.3324 2 3 cbr 1000 ------- 2 1.0 6.0 38 39
+ 1.335714 1 2 cbr 1000 ------- 2 1.0 6.0 58 60
- 1.335714 1 2 cbr 1000 ------- 2 1.0 6.0 58 60
r 1.335857 1 2 cbr 1000 ------- 2 1.0 6.0 57 59
+ 1.335857 2 3 cbr 1000 ------- 2 1.0 6.0 57 59
+ 1.339067 3 7 cbr 1000 ------- 2 1.0 6.0 32 33
- 1.339067 3 7 cbr 1000 ------- 2 1.0 6.0 32 33
d 1.339071 5 7 cbr 1000 ------- 2 1.0 6.0 32 33
d 1.339071 4 7 cbr 1000 ------- 2 1.0 6.0 32 33
r 1.3524 2 3 cbr 1000 ------- 2 1.0 6.0 34 35
h 1.3524 3 7 cbr 1000 ------- 2 1.0 6.0 34 35
r 1.352404 7 6 cbr 1000 ------- 2 1.0 6.0 31 32
+ 1.353571 1 2 cbr 1000 ------- 2 1.0 6.0 59 61
- 1.353571 1 2 cbr 1000 ------- 2 1.0 6.0 59 61
r 1.353714 1 2 cbr 1000 ------- 2 1.0 6.0 58 60
+ 1.353714 2 3 cbr 1000 ------- 2 1.0 6.0 58 60
- 1.359067 2 3 cbr 1000 ------- 2 1.0 6.0 39 40
+ 1.365733 3 7 cbr 1000 ------- 2 1.0 6.0 33 34
- 1.365733 3 7 cbr 1000 ------- 2 1.0 6.0 33 34
d 1.365737 5 7 cbr 1000 ------- 2 1.0 6.0 33 34
d 1.365737 4 7 cbr 1000 ------- 2 1.0 6.0 33 34
+ 1.371429 1 2 cbr 1000 ------- 2 1.0 6.0 60 62
- 1.371429 1 2 cbr 1000 ------- 2 1.0 6.0 60 62
r 1.371571 1 2 cbr 1000 ------- 2 1.0 6.0 59 61
+ 1.371571 2 3 cbr 1000 ------- 2 1.0 6.0 59 61
r 1.379067 2 3 cbr 1000 ------- 2 1.0 6.0 35 36
h 1.379067 3 7 cbr 1000 ------- 2 1.0 6.0 35 36
r 1.379071 7 6 cbr 1000 ------- 2 1.0 6.0 32 33
- 1.385733 2 3 cbr 1000 ------- 2 1.0 6.0 40 41
+ 1.389286 1 2 cbr 1000 ------- 2 1.0 6.0 61 63
- 1.389286 1 2 cbr 1000 ------- 2 1.0 6.0 61 63
r 1.389429 1 2 cbr 1000 ------- 2 1.0 6.0 60 62
+ 1.389429 2 3 cbr 1000 ------- 2 1.0 6.0 60 62
+ 1.3924 3 7 cbr 1000 ------- 2 1.0 6.0 34 35
- 1.3924 3 7 cbr 1000 ------- 2 1.0 6.0 34 35
d 1.392404 5 7 cbr 1000 ------- 2 1.0 6.0 34 35
d 1.392404 4 7 cbr 1000 ------- 2 1.0 6.0 34 35
r 1.405733 2 3 cbr 1000 ------- 2 1.0 6.0 36 37
h 1.405733 3 7 cbr 1000 ------- 2 1.0 6.0 36 37
r 1.405737 7 6 cbr 1000 ------- 2 1.0 6.0 33 34
+ 1.407143 1 2 cbr 1000 ------- 2 1.0 6.0 62 64
- 1.407143 1 2 cbr 1000 ------- 2 1.0 6.0 62 64
r 1.407286 1 2 cbr 1000 ------- 2 1.0 6.0 61 63
+ 1.407286 2 3 cbr 1000 ------- 2 1.0 6.0 61 63
- 1.4124 2 3 cbr 1000 ------- 2 1.0 6.0 41 42
+ 1.419067 3 7 cbr 1000 ------- 2 1.0 6.0 35 36
- 1.419067 3 7 cbr 1000 ------- 2 1.0 6.0 35 36
d 1.419071 5 7 cbr 1000 ------- 2 1.0 6.0 35 36
d 1.419071 4 7 cbr 1000 ------- 2 1.0 6.0 35 36
+ 1.425 1 2 cbr 1000 ------- 2 1.0 6.0 63 65
- 1.425 1 2 cbr 1000 ------- 2 1.0 6.0 63 65
r 1.425143 1 2 cbr 1000 ------- 2 1.0 6.0 62 64
+ 1.425143 2 3 cbr 1000 ------- 2 1.0 6.0 62 64
r 1.429997 3 2 ack 40 ------- 1 4.0 0.0 0 55
+ 1.429997 2 0 ack 40 ------- 1 4.0 0.0 0 55
- 1.429997 2 0 ack 40 ------- 1 4.0 0.0 0 55
r 1.4324 2 3 cbr 1000 ------- 2 1.0 6.0 37 38
h 1.4324 3 7 cbr 1000 ------- 2 1.0 6.0 37 38
r 1.432404 7 6 cbr 1000 ------- 2 1.0 6.0 34 35
- 1.439067 2 3 cbr 1000 ------- 2 1.0 6.0 42 43
r 1.440317 2 0 ack 40 ------- 1 4.0 0.0 0 55
+ 1.440317 0 2 tcp 592 ------- 1 0.0 4.0 1 66
- 1.440317 0 2 tcp 592 ------- 1 0.0 4.0 1 66
+ 1.440317 0 2 tcp 592 ------- 1 0.0 4.0 2 67
+ 1.442857 1 2 cbr 1000 ------- 2 1.0 6.0 64 68
- 1.442857 1 2 cbr 1000 ------- 2 1.0 6.0 64 68
r 1.443 1 2 cbr 1000 ------- 2 1.0 6.0 63 65
+ 1.443 2 3 cbr 1000 ------- 2 1.0 6.0 63 65
- 1.445053 0 2 tcp 592 ------- 1 0.0 4.0 2 67
+ 1.445733 3 7 cbr 1000 ------- 2 1.0 6.0 36 37
- 1.445733 3 7 cbr 1000 ------- 2 1.0 6.0 36 37
d 1.445737 5 7 cbr 1000 ------- 2 1.0 6.0 36 37
d 1.445737 4 7 cbr 1000 ------- 2 1.0 6.0 36 37
r 1.455053 0 2 tcp 592 ------- 1 0.0 4.0 1 66
+ 1.455053 2 3 tcp 592 ------- 1 0.0 4.0 1 66
r 1.459067 2 3 cbr 1000 ------- 2 1.0 6.0 38 39
h 1.459067 3 7 cbr 1000 ------- 2 1.0 6.0 38 39
r 1.459071 7 6 cbr 1000 ------- 2 1.0 6.0 35 36
r 1.459789 0 2 tcp 592 ------- 1 0.0 4.0 2 67
+ 1.459789 2 3 tcp 592 ------- 1 0.0 4.0 2 67
+ 1.460714 1 2 cbr 1000 ------- 2 1.0 6.0 65 69
- 1.460714 1 2 cbr 1000 ------- 2 1.0 6.0 65 69
r 1.460857 1 2 cbr 1000 ------- 2 1.0 6.0 64 68
+ 1.460857 2 3 cbr 1000 ------- 2 1.0 6.0 64 68
- 1.465733 2 3 cbr 1000 ------- 2 1.0 6.0 43 44
+ 1.4724 3 7 cbr 1000 ------- 2 1.0 6.0 37 38
- 1.4724 3 7 cbr 1000 ------- 2 1.0 6.0 37 38
d 1.472404 5 7 cbr 1000 ------- 2 1.0 6.0 37 38
d 1.472404 4 7 cbr 1000 ------- 2 1.0 6.0 37 38
+ 1.478571 1 2 cbr 1000 ------- 2 1.0 6.0 66 70
- 1.478571 1 2 cbr 1000 ------- 2 1.0 6.0 66 70
r 1.478714 1 2 cbr 1000 ------- 2 1.0 6.0 65 69
+ 1.478714 2 3 cbr 1000 ------- 2 1.0 6.0 65 69
r 1.485733 2 3 cbr 1000 ------- 2 1.0 6.0 39 40
h 1.485733 3 7 cbr 1000 ------- 2 1.0 6.0 39 40
r 1.485737 7 6 cbr 1000 ------- 2 1.0 6.0 36 37
- 1.4924 2 3 cbr 1000 ------- 2 1.0 6.0 44 45
+ 1.496429 1 2 cbr 1000 ------- 2 1.0 6.0 67 71
- 1.496429 1 2 cbr 1000 ------- 2 1.0 6.0 67 71
r 1.496571 1 2 cbr 1000 ------- 2 1.0 6.0 66 70
+ 1.496571 2 3 cbr 1000 ------- 2 1.0 6.0 66 70
+ 1.499067 3 7 cbr 1000 ------- 2 1.0 6.0 38 39
- 1.499067 3 7 cbr 1000 ------- 2 1.0 6.0 38 39
d 1.499071 5 7 cbr 1000 ------- 2 1.0 6.0 38 39
d 1.499071 4 7 cbr 1000 ------- 2 1.0 6.0 38 39
r 1.5124 2 3 cbr 1000 ------- 2 1.0 6.0 40 41
h 1.5124 3 7 cbr 1000 ------- 2 1.0 6.0 40 41
r 1.512404 7 6 cbr 1000 ------- 2 1.0 6.0 37 38
+ 1.514286 1 2 cbr 1000 ------- 2 1.0 6.0 68 72
- 1.514286 1 2 cbr 1000 ------- 2 1.0 6.0 68 72
r 1.514429 1 2 cbr 1000 ------- 2 1.0 6.0 67 71
+ 1.514429 2 3 cbr 1000 ------- 2 1.0 6.0 67 71
- 1.519067 2 3 cbr 1000 ------- 2 1.0 6.0 45 46
+ 1.525733 3 7 cbr 1000 ------- 2 1.0 6.0 39 40
- 1.525733 3 7 cbr 1000 ------- 2 1.0 6.0 39 40
d 1.525737 5 7 cbr 1000 ------- 2 1.0 6.0 39 40
d 1.525737 4 7 cbr 1000 ------- 2 1.0 6.0 39 40
+ 1.532143 1 2 cbr 1000 ------- 2 1.0 6.0 69 73
- 1.532143 1 2 cbr 1000 ------- 2 1.0 6.0 69 73
r 1.532286 1 2 cbr 1000 ------- 2 1.0 6.0 68 72
+ 1.532286 2 3 cbr 1000 ------- 2 1.0 6.0 68 72
r 1.539067 2 3 cbr 1000 ------- 2 1.0 6.0 41 42
h 1.539067 3 7 cbr 1000 ------- 2 1.0 6.0 41 42